ITEM: TIMESTEP
1000000
ITEM: NUMBER OF ATOMS
225
ITEM: BOX BOUNDS pp ff pp
0.0000000000000000e+00 4.0000000000000000e+01
0.0000000000000000e+00 2.0000000000000000e+01
-1.0000000000000000e+00 1.0000000000000000e+00
ITEM: ATOMS id x y vx vy diameter 
58 18.1674 4.36853 -0.168591 -0.203064 0.46 
91 18.7292 4.00038 -0.0461835 -0.102924 0.46 
6 19.5964 4.05461 0.0327286 0.0172775 0.46 
79 17.604 4.67643 -0.0788431 0.0217002 0.46 
59 18.6404 4.77633 0.230744 0.0949997 0.46 
16 19.1488 4.46334 0.138126 -0.0399523 0.46 
8 19.6823 4.76353 0.0146065 -0.185596 0.46 
55 16.4151 5.25393 -0.0276042 -0.26663 0.46 
74 17.0161 4.958 -0.0441105 -0.0220861 0.46 
177 18.1248 5.07421 0.165104 0.15278 0.46 
1 19.1722 5.08317 0.0806965 0.107245 0.46 
209 15.0596 5.55909 1.52884 0.5878 0.46 
63 15.8889 5.69014 -0.0843974 -0.0548984 0.46 
81 17.052 5.60419 0.100135 0.0644096 0.46 
121 17.5906 5.33818 0.0398039 0.081535 0.46 
118 18.1709 5.68367 0.0169448 0.195494 0.46 
60 18.6688 5.38828 -0.0183661 0.025546 0.46 
46 19.1672 5.65829 0.0366596 0.099826 0.46 
11 19.6974 5.36494 -0.104791 -0.0574035 0.46 
111 16.5187 5.88166 -0.0396368 -0.0233921 0.46 
67 17.1531 6.18801 0.182584 -0.082126 0.46 
124 17.6566 5.93068 0.212647 0.0688459 0.46 
116 18.6597 5.99018 0.064791 0.0925617 0.46 
4 19.2755 6.18763 0.0282975 0.0758694 0.46 
9 19.7237 5.91295 0.133026 0.0943809 0.46 
148 14.9358 6.43049 0.0865721 0.0579866 0.46 
44 15.5254 6.23426 0.122305 0.0771929 0.46 
135 16.1255 6.38162 0.178368 0.0455172 0.46 
75 16.6709 6.46881 0.0942292 -0.016387 0.46 
37 17.6447 6.51236 0.175652 0.253934 0.46 
180 18.1663 6.28825 0.394015 0.380522 0.46 
3 18.8546 6.47454 0.0576241 0.056886 0.46 
10 19.7473 6.47361 0.105311 0.00451139 0.46 
122 14.6341 6.99139 0.214197 0.461644 0.46 
80 15.7924 6.85228 0.229226 -0.261753 0.46 
50 16.6106 7.02219 0.217904 -0.028114 0.46 
29 17.1464 6.80178 0.138131 -0.100461 0.46 
61 18.0022 6.90284 0.205689 -0.160968 0.46 
76 18.4599 6.77015 0.270427 0.300249 0.46 
5 18.8942 7.03985 0.073804 0.18781 0.46 
7 19.3201 6.75389 -0.0170723 0.117852 0.46 
39 19.7655 7.02223 -0.0751568 0.184818 0.46 
109 15.2913 7.14238 0.318276 -0.201339 0.46 
155 16.1461 7.31586 0.314305 0.345541 0.46 
123 17.0853 7.37336 -0.0552174 -0.0547613 0.46 
113 17.5615 7.14744 0.101759 -0.111952 0.46 
84 18.0259 7.42347 0.0533631 -0.40973 0.46 
73 18.4904 7.34269 0.227118 0.171902 0.46 
24 19.3402 7.2996 -0.0105114 0.166032 0.46 
96 14.3573 7.57664 0.297324 0.061952 0.46 
52 14.9958 7.65069 -0.00466534 -0.369971 0.46 
208 15.6686 7.62715 0.186348 0.186136 0.46 
139 16.1866 7.96653 0.13783 0.220369 0.46 
88 16.6094 7.63443 0.257083 0.147466 0.46 
117 17.1359 7.90765 -0.0469586 0.0233061 0.46 
176 17.5893 7.68212 0.00280395 -0.231441 0.46 
77 18.0619 7.8986 -0.0198537 -0.538404 0.46 
138 18.5325 7.87241 0.0804287 0.00685297 0.46 
2 18.9279 7.58349 0.178497 0.380406 0.46 
21 19.3627 7.83633 -0.00905212 0.132754 0.46 
13 19.7721 7.5614 0.10962 0.158864 0.46 
168 13.8789 8.10322 -0.235894 -0.298603 0.46 
144 14.302 8.38308 0.0124755 -0.861812 0.46 
47 14.6978 8.12899 1.20053 -1.47823 0.46 
161 15.3042 8.11763 0.111271 -0.1872 0.46 
170 15.8044 8.35098 0.0772398 0.105411 0.46 
186 16.6814 8.20888 0.0330338 0.21824 0.46 
27 17.1648 8.43193 -0.231382 0.0740986 0.46 
18 17.6237 8.18864 -0.340639 -0.147151 0.46 
127 18.1056 8.35944 -0.0921151 -0.238177 0.46 
64 18.5736 8.39745 -0.0613157 0.657176 0.46 
20 18.9762 8.11943 -0.0140345 0.161768 0.46 
54 19.3819 8.3891 0.240008 0.48766 0.46 
12 19.7719 8.10443 -0.032642 0.238598 0.46 
181 14.8383 8.7722 0.562791 -0.124862 0.46 
97 15.3594 8.65671 -0.0477647 -0.216068 0.46 
51 16.2574 8.597 0.0256237 0.00678692 0.46 
89 16.7474 8.75403 -0.107182 0.184852 0.46 
142 17.6658 8.68821 -0.185499 0.0337357 0.46 
150 18.1387 8.83803 0.196191 -0.439 0.46 
166 18.9871 8.66599 0.00477932 0.384388 0.46 
25 19.7739 8.67843 0.0460571 0.794836 0.46 
43 12.5632 9.31629 -2.00966 -4.43269 0.46 
210 14.3486 9.05433 0.234297 -0.152461 0.46 
17 15.2892 9.18433 0.563308 -0.634126 0.46 
28 15.8224 8.97899 -0.0744692 -0.12524 0.46 
83 16.3296 9.16838 0.0476962 -0.326068 0.46 
164 16.8267 9.26493 0.128563 0.158478 0.46 
192 17.2462 8.93325 -0.284429 -0.0612241 0.46 
85 17.7726 9.19956 0.302805 0.0171536 0.46 
78 18.6297 8.961 0.825551 0.803227 0.46 
26 18.2805 9.29357 0.242633 -0.418354 0.46 
146 19.3458 8.94363 -0.0459315 0.316892 0.46 
157 19.7649 9.23169 0.641242 0.634436 0.46 
32 11.9991 9.48365 -4.51193 -1.51846 0.46 
159 13.7156 9.35588 -0.137445 -0.72535 0.46 
190 14.3088 9.74925 0.273293 -0.37797 0.46 
165 14.8051 9.42283 0.888547 0.769574 0.46 
193 15.2475 9.71544 0.516166 -0.971721 0.46 
99 15.7693 9.52217 0.623512 -0.21813 0.46 
38 16.2898 9.69833 0.40191 -0.330713 0.46 
207 16.825 9.76838 0.139386 0.29998 0.46 
35 17.3146 9.40969 0.433217 0.0685998 0.46 
48 17.8456 9.72002 0.54395 -0.124365 0.46 
66 18.3941 9.72313 0.1651 -0.799693 0.46 
19 18.8411 9.44243 1.36529 0.774449 0.46 
149 19.3496 9.40664 0.111473 0.763017 0.46 
92 19.7012 9.75625 2.58473 -0.513403 0.46 
137 20.2615 9.61951 3.52141 0.265186 0.46 
114 21.1485 9.63761 3.3626 -0.55785 0.46 
205 14.8238 10.0738 0.298372 -0.195902 0.46 
196 15.6366 10.0257 0.470967 -0.11671 0.46 
57 16.0927 10.2183 1.47294 0.182684 0.46 
69 16.5235 10.2014 1.03708 0.192015 0.46 
187 17.3349 9.86838 0.397934 0.0907707 0.46 
36 17.6513 10.216 0.169668 0.122264 0.46 
152 18.164 10.1757 0.355707 -0.432796 0.46 
31 18.6513 10.0897 0.561573 -0.457878 0.46 
102 19.1379 9.89431 1.84938 1.08786 0.46 
178 19.5786 10.1997 0.828363 -0.292716 0.46 
167 20.5426 10.1828 3.56247 1.55125 0.46 
189 14.1342 10.3077 0.85542 -1.06421 0.46 
14 14.6614 10.5736 -0.126145 0.346258 0.46 
134 15.2674 10.4054 1.05862 0.233085 0.46 
40 16.1825 10.6659 0.276743 0.00356622 0.46 
15 16.7258 10.6656 0.228552 -0.0200455 0.46 
34 17.035 10.2582 -0.10328 -0.280899 0.46 
22 17.3528 10.6317 0.160372 -0.284114 0.46 
41 17.8995 10.634 0.732471 0.0989208 0.46 
163 18.4401 10.6384 0.631751 -0.356166 0.46 
90 18.948 10.4337 0.468898 -0.603152 0.46 
156 19.3389 10.6552 0.284406 -0.487897 0.46 
212 19.7892 10.5952 0.177628 0.0333928 0.46 
33 13.7942 10.6729 0.560908 -0.422837 0.46 
141 14.8639 11.0961 0.319087 0.569048 0.46 
87 15.6304 10.6773 1.53562 0.641414 0.46 
133 17.0311 11.0576 0.284554 -0.110385 0.46 
82 17.5624 11.0601 0.193284 -0.178984 0.46 
70 18.0695 11.0754 0.361902 0.270118 0.46 
151 18.8772 10.9069 0.624007 -0.46267 0.46 
94 19.5293 11.0731 0.155726 -0.561444 0.46 
132 14.0373 11.2792 -0.159536 0.671002 0.46 
42 14.5254 11.5063 2.53394 1.77389 0.46 
53 15.3431 11.1942 1.12416 0.315106 0.46 
110 15.9003 11.1304 0.359551 -0.287794 0.46 
158 16.4715 11.1373 0.102147 -0.209317 0.46 
174 17.2707 11.4916 0.242111 0.065871 0.46 
175 17.794 11.5171 0.0151287 -0.145174 0.46 
194 18.5079 11.2279 0.717437 -0.782162 0.46 
56 19.1141 11.3057 0.311483 -0.365537 0.46 
86 19.7774 11.4519 0.255542 0.0340018 0.46 
147 13.6667 11.5934 -0.415922 1.0143 0.46 
131 14.1075 11.9927 0.241983 0.647053 0.46 
153 14.8664 11.6808 3.74853 2.37842 0.46 
140 15.2483 11.9386 0.874026 0.609208 0.46 
169 15.6764 11.6251 0.368025 -0.0682159 0.46 
220 16.2134 11.6344 0.264486 -0.231972 0.46 
204 16.761 11.567 0.401983 -0.258571 0.46 
173 17.4078 11.9478 0.218224 0.123789 0.46 
171 18.2607 11.703 0.0207432 -0.608555 0.46 
126 18.7418 11.6312 0.258247 -0.324701 0.46 
98 19.3718 11.6958 -0.231649 -0.027798 0.46 
222 19.7718 11.9688 -0.0036957 0.143564 0.46 
49 14.6336 12.2348 -0.0199574 -0.0234109 0.46 
68 15.7932 12.2019 0.228153 -0.0983994 0.46 
183 16.3541 12.1471 0.248543 -0.294878 0.46 
100 16.8777 12.0484 0.228443 -0.341442 0.46 
206 17.2452 12.4195 -0.147706 -0.072098 0.46 
93 17.8831 12.0463 0.289839 -0.137231 0.46 
172 18.5139 12.1591 0.00794422 -0.144716 0.46 
101 19.0053 12.006 -0.117395 -0.0384652 0.46 
201 19.3871 12.263 -0.0039451 0.0966815 0.46 
23 14.7113 12.8854 0.435006 -0.100143 0.46 
65 15.2247 12.4798 -0.0478655 0.161849 0.46 
191 15.6407 12.8452 0.0296628 -0.0747792 0.46 
182 16.1715 12.6923 0.0997434 -0.100901 0.46 
202 16.7143 12.5921 0.164366 -0.286212 0.46 
105 17.6563 12.6662 -0.0673601 -0.12373 0.46 
71 18.1094 12.4611 0.145634 -0.0113405 0.46 
185 18.4875 12.7617 0.0657961 -0.0109643 0.46 
200 18.9049 12.4985 -0.0929442 0.00218738 0.46 
221 19.3248 12.7769 -0.0487272 0.054962 0.46 
224 19.7745 12.521 -0.034948 0.0839823 0.46 
154 15.2442 13.2949 0.225966 0.175703 0.46 
115 15.9805 13.3082 0.334613 0.137611 0.46 
30 16.5465 13.1288 0.20259 -0.0312048 0.46 
136 17.116 12.942 0.0167583 -0.0485847 0.46 
145 17.5275 13.2532 0.0643902 -0.0969457 0.46 
143 18.0162 13.0218 -0.0880789 -0.128519 0.46 
179 18.4258 13.3198 -0.0727754 0.0379326 0.46 
184 18.888 13.0491 -0.0935705 0.0749896 0.46 
199 19.3178 13.3236 -0.0462728 -0.0201886 0.46 
223 19.7607 13.0515 0.0462269 0.0591578 0.46 
217 14.5582 13.5285 0.870729 0.270752 0.46 
195 16.4093 13.7006 0.0134096 0.0694053 0.46 
108 16.9757 13.4871 0.0909301 -0.114067 0.46 
130 17.9354 13.5853 -0.0219114 -0.0328003 0.46 
198 18.8548 13.6025 -0.0913781 0.00168136 0.46 
219 19.746 13.6086 -0.0162945 -0.118697 0.46 
62 15.1547 13.9336 -0.0615835 0.245452 0.46 
120 15.7917 13.8642 -0.135473 0.153197 0.46 
129 16.8644 14.0912 0.0601986 -0.172742 0.46 
103 17.4129 13.8322 -0.0221255 -0.110486 0.46 
45 17.8682 14.1721 -0.0858625 -0.102772 0.46 
213 18.3757 13.8855 -0.0495123 -0.102714 0.46 
188 18.8229 14.1862 -0.12021 -0.0755673 0.46 
203 19.2903 13.89 -0.0486171 -0.0575793 0.46 
216 19.7326 14.1919 -0.0194505 -0.047872 0.46 
112 15.6616 14.5196 0.151845 0.215979 0.46 
225 16.2724 14.3322 0.0565254 -0.0913992 0.46 
128 17.3349 14.4569 0.00360127 -0.158366 0.46 
107 18.3446 14.4877 -0.0429025 -0.183289 0.46 
215 19.274 14.4854 -0.105519 -0.145451 0.46 
119 16.7407 14.7605 -0.0216927 0.0235461 0.46 
197 17.262 15.1002 0.0949109 0.134956 0.46 
125 17.8414 14.8028 -0.050666 -0.132568 0.46 
104 18.7996 14.8145 0.0254861 -0.181632 0.46 
218 19.7199 14.8083 -0.00730745 -0.161408 0.46 
72 17.7528 15.4973 0.135567 0.0174138 0.46 
162 18.3254 15.1631 0.127342 -0.00992522 0.46 
106 18.8217 15.5178 0.0963807 -0.0332501 0.46 
211 19.2596 15.1243 0.0482299 -0.051837 0.46 
214 19.6628 15.5246 0.0350249 -0.0335444 0.46 
95 18.2842 15.884 0.152052 -0.0396957 0.46 
160 19.2444 16.0159 0.13209 0.124757 0.46 