ITEM: TIMESTEP
1000000
ITEM: NUMBER OF ATOMS
225
ITEM: BOX BOUNDS pp ff pp
0.0000000000000000e+00 4.0000000000000000e+01
0.0000000000000000e+00 2.0000000000000000e+01
-1.0000000000000000e+00 1.0000000000000000e+00
ITEM: ATOMS id x y x vy diameter 
54 18.675 5.17741 18.675 0.095187 0.46 
190 19.636 5.00428 19.636 -0.116954 0.46 
37 17.668 5.71889 17.668 -0.301095 0.46 
158 18.187 5.44362 18.187 -0.274703 0.46 
197 18.7116 5.6803 18.7116 0.299517 0.46 
216 19.2022 5.35701 19.2022 0.226291 0.46 
70 19.7713 5.49091 19.7713 0.534912 0.46 
56 17.1777 6.03089 17.1777 -0.540704 0.46 
147 17.9058 6.18295 17.9058 -0.0260848 0.46 
171 18.3155 5.94437 18.3155 0.0324087 0.46 
167 19.0224 6.0437 19.0224 -0.408378 0.46 
140 19.4099 5.78622 19.4099 0.471414 0.46 
73 19.7762 6.05648 19.7762 -0.227781 0.46 
223 16.1941 6.33628 16.1941 1.22615 0.46 
2 16.7542 6.2676 16.7542 -1.06347 0.46 
121 17.1045 6.64411 17.1045 -0.0739043 0.46 
58 17.519 6.43983 17.519 0.131227 0.46 
40 18.2413 6.51721 18.2413 -0.726443 0.46 
196 18.6293 6.27677 18.6293 -0.289458 0.46 
93 19.0063 6.53499 19.0063 -0.335864 0.46 
126 19.3973 6.3041 19.3973 -0.254358 0.46 
69 19.7809 6.54926 19.7809 -0.4487 0.46 
103 15.3205 6.99467 15.3205 0.63327 0.46 
173 15.7882 6.94841 15.7882 -0.350527 0.46 
177 16.2273 6.94859 16.2273 -0.404909 0.46 
189 16.6538 6.81923 16.6538 -0.642481 0.46 
6 17.4484 6.96511 17.4484 0.374882 0.46 
33 17.8562 6.75922 17.8562 -0.353237 0.46 
16 18.2337 7.01897 18.2337 -0.119746 0.46 
87 18.6176 6.77624 18.6176 -0.302015 0.46 
84 19.0044 7.01671 19.0044 -0.314828 0.46 
101 19.391 6.78054 19.391 -0.365726 0.46 
111 19.7842 7.01365 19.7842 -0.383885 0.46 
169 16.1874 7.43771 16.1874 0.335644 0.46 
176 16.6207 7.32016 16.6207 0.0163679 0.46 
44 17.0336 7.15006 17.0336 -0.262811 0.46 
141 17.4262 7.42521 17.4262 0.355643 0.46 
215 17.8329 7.22732 17.8329 0.295759 0.46 
43 18.231 7.48044 18.231 0.222139 0.46 
160 18.6216 7.25423 18.6216 -0.0367749 0.46 
112 19.0148 7.48306 19.0148 -0.247116 0.46 
34 19.3986 7.24808 19.3986 -0.494357 0.46 
220 19.7853 7.48474 19.7853 -0.0979778 0.46 
30 15.1861 7.88541 15.1861 -0.359882 0.46 
38 15.7381 7.62788 15.7381 -0.458291 0.46 
91 16.1678 7.95011 16.1678 0.653942 0.46 
45 16.6007 7.79426 16.6007 0.433203 0.46 
123 17.0158 7.61372 17.0158 0.329926 0.46 
26 17.4204 7.88697 17.4204 0.060768 0.46 
109 17.8298 7.68731 17.8298 0.326943 0.46 
125 18.2412 7.93951 18.2412 0.0639882 0.46 
191 18.6293 7.7131 18.6293 -0.226607 0.46 
95 19.0147 7.95642 19.0147 -0.195462 0.46 
76 19.4001 7.72136 19.4001 0.130034 0.46 
120 19.784 7.95983 19.784 0.176948 0.46 
46 14.8112 8.30808 14.8112 -2.17317 0.46 
17 15.6523 8.11599 15.6523 -0.906313 0.46 
179 16.1675 8.41668 16.1675 -0.23538 0.46 
180 16.5883 8.24995 16.5883 -0.132046 0.46 
67 17.0088 8.07514 17.0088 -0.164791 0.46 
174 17.4378 8.34273 17.4378 0.111919 0.46 
105 17.8416 8.14436 17.8416 0.0283411 0.46 
218 18.2329 8.39694 18.2329 0.302781 0.46 
1 18.6374 8.20011 18.6374 0.167634 0.46 
132 19.3986 8.19781 19.3986 -0.0862492 0.46 
42 19.7825 8.43836 19.7825 0.200339 0.46 
4 14.4491 8.70498 14.4491 -1.56486 0.46 
50 15.2906 8.51006 15.2906 -0.470773 0.46 
117 15.7505 8.61111 15.7505 0.288332 0.46 
94 16.2005 8.87543 16.2005 -0.132587 0.46 
142 16.6156 8.7057 16.6156 -0.191849 0.46 
157 17.0309 8.53157 17.0309 0.0347148 0.46 
154 17.4229 8.79793 17.4229 0.511668 0.46 
15 17.8297 8.59942 17.8297 0.139012 0.46 
201 18.2231 8.85307 18.2231 -0.135307 0.46 
155 18.6446 8.69019 18.6446 0.77077 0.46 
110 19.0218 8.44603 19.0218 0.294425 0.46 
188 19.4049 8.68814 19.4049 0.387233 0.46 
49 13.8354 9.18655 13.8354 -1.6165 0.46 
202 14.5789 9.1799 14.5789 -0.891133 0.46 
116 14.9774 8.90121 14.9774 -1.10629 0.46 
22 15.3506 9.15883 15.3506 -0.307804 0.46 
175 15.7932 9.06932 15.7932 -0.303848 0.46 
213 16.588 9.16376 16.588 0.088179 0.46 
13 17.0105 8.98929 17.0105 0.575594 0.46 
41 17.4083 9.25392 17.4083 0.153703 0.46 
3 17.818 9.05506 17.818 0.100499 0.46 
52 18.2135 9.30632 18.2135 -0.118021 0.46 
192 18.6388 9.15744 18.6388 0.767597 0.46 
98 19.0355 8.94737 19.0355 0.187797 0.46 
61 19.4116 9.20309 19.4116 0.709072 0.46 
48 19.7811 8.9444 19.7811 0.247545 0.46 
32 14.2185 9.56197 14.2185 -0.384484 0.46 
127 14.9701 9.41178 14.9701 -1.37738 0.46 
83 15.3289 9.69776 15.3289 -0.834705 0.46 
166 15.7498 9.52448 15.7498 -0.236113 0.46 
24 16.1678 9.33988 16.1678 -0.0830958 0.46 
14 16.5364 9.6175 16.5364 0.448801 0.46 
27 16.9926 9.44394 16.9926 -0.021584 0.46 
85 17.3965 9.71051 17.3965 0.060291 0.46 
64 17.8067 9.51089 17.8067 0.245537 0.46 
80 18.1937 9.75661 18.1937 0.313559 0.46 
200 18.6182 9.61608 18.6182 0.896455 0.46 
186 19.0477 9.47382 19.0477 0.263869 0.46 
18 19.428 9.72994 19.428 0.404765 0.46 
104 19.7825 9.4591 19.7825 -0.225506 0.46 
90 20.6423 9.63605 20.6423 -2.1387 0.46 
47 14.391 10.0806 14.391 0.0226905 0.46 
221 14.8235 9.85728 14.8235 -0.435987 0.46 
150 15.2305 10.179 15.2305 -0.739776 0.46 
107 15.6981 9.98768 15.6981 -0.208197 0.46 
96 16.1173 9.80451 16.1173 0.0363654 0.46 
195 16.4854 10.0781 16.4854 -0.0370912 0.46 
184 16.9028 9.88876 16.9028 0.226282 0.46 
12 17.2763 10.1467 17.2763 0.355491 0.46 
100 17.7891 9.96475 17.7891 0.138335 0.46 
74 18.1796 10.2039 18.1796 0.460249 0.46 
81 18.9526 9.94449 18.9526 -0.207129 0.46 
204 19.3574 10.1741 19.3574 -0.00341288 0.46 
182 20.1476 9.93856 20.1476 -0.710008 0.46 
183 20.9477 10.204 20.9477 0.659232 0.46 
39 13.8629 10.3829 13.8629 -0.170204 0.46 
145 14.3402 10.5845 14.3402 0.826469 0.46 
8 14.8298 10.4218 14.8298 -0.809337 0.46 
199 15.6195 10.4468 15.6195 -0.327821 0.46 
194 16.0703 10.2685 16.0703 -0.0491862 0.46 
181 16.4444 10.5346 16.4444 0.116828 0.46 
187 16.8617 10.3436 16.8617 -0.0735615 0.46 
11 17.2413 10.6009 17.2413 0.47615 0.46 
153 17.6533 10.3943 17.6533 0.368445 0.46 
124 18.0371 10.6311 18.0371 0.328027 0.46 
156 18.628 10.2773 18.628 -1.35415 0.46 
129 19.0304 10.4868 19.0304 -0.308065 0.46 
72 19.8302 10.3303 19.8302 -1.87616 0.46 
21 13.8247 10.8883 13.8247 1.24623 0.46 
53 14.6655 11.0703 14.6655 -0.76086 0.46 
219 15.182 10.7332 15.182 -0.624846 0.46 
222 15.6016 10.9399 15.6016 -0.0394327 0.46 
148 16.0163 10.7217 16.0163 -0.15164 0.46 
57 16.4115 10.9957 16.4115 0.482184 0.46 
119 16.8282 10.799 16.8282 0.0679891 0.46 
210 17.208 11.0542 17.208 0.3512 0.46 
122 17.6268 10.8452 17.6268 0.538107 0.46 
207 18.0153 11.081 18.0153 0.518982 0.46 
133 18.483 10.7165 18.483 -1.34808 0.46 
31 18.891 10.9173 18.891 -0.730143 0.46 
163 19.3397 10.8094 19.3397 -0.929609 0.46 
97 19.7846 10.8204 19.7846 -0.747476 0.46 
20 14.2298 11.4885 14.2298 1.81666 0.46 
212 15.1099 11.2565 15.1099 -0.340839 0.46 
136 15.5594 11.4425 15.5594 -0.0536102 0.46 
138 15.9944 11.1916 15.9944 -0.493978 0.46 
208 16.3787 11.4557 16.3787 -0.16534 0.46 
89 16.7945 11.256 16.7945 -0.201336 0.46 
159 17.1737 11.5056 17.1737 0.432644 0.46 
206 17.5992 11.2969 17.5992 0.567308 0.46 
172 17.9905 11.5329 17.9905 0.490391 0.46 
88 18.4596 11.1742 18.4596 -1.18624 0.46 
137 18.8101 11.4599 18.8101 -1.04201 0.46 
102 19.2077 11.242 19.2077 -0.945635 0.46 
99 19.7588 11.2793 19.7588 -0.581462 0.46 
75 14.7209 11.919 14.7209 0.191512 0.46 
162 15.2321 11.7956 15.2321 -0.155712 0.46 
209 15.9606 11.6633 15.9606 -0.585951 0.46 
152 16.3373 11.9473 16.3373 -0.141204 0.46 
19 16.7627 11.7153 16.7627 0.103875 0.46 
134 17.1512 11.9626 17.1512 0.437168 0.46 
149 17.5622 11.748 17.5622 0.404396 0.46 
5 17.9504 11.9851 17.9504 0.0943924 0.46 
135 18.4152 11.6863 18.4152 -0.680449 0.46 
7 19.0392 11.8499 19.0392 -0.391299 0.46 
71 19.4417 11.6265 19.4417 0.120054 0.46 
55 19.7848 11.9148 19.7848 0.379223 0.46 
198 15.2953 12.3512 15.2953 0.802838 0.46 
113 15.6723 12.0239 15.6723 -0.543553 0.46 
78 16.3082 12.4117 16.3082 -0.1218 0.46 
185 16.7384 12.1702 16.7384 -0.331556 0.46 
36 17.121 12.4222 17.121 0.18538 0.46 
203 17.5375 12.2053 17.5375 0.258574 0.46 
106 18.2538 12.3142 18.2538 0.122076 0.46 
9 18.6431 12.0787 18.6431 -0.592727 0.46 
170 18.9972 12.3648 18.9972 -0.0951329 0.46 
224 19.3897 12.1379 19.3897 0.00532852 0.46 
62 19.7787 12.3748 19.7787 0.152613 0.46 
193 15.8526 12.4651 15.8526 -0.305763 0.46 
211 15.5981 12.845 15.5981 1.25782 0.46 
10 16.7016 12.6492 16.7016 0.111233 0.46 
25 17.4492 12.7431 17.4492 -0.0396067 0.46 
164 17.8529 12.5317 17.8529 0.128321 0.46 
114 18.2096 12.8115 18.2096 0.353819 0.46 
79 18.6074 12.5931 18.6074 0.188021 0.46 
131 18.9932 12.8317 18.9932 0.0874877 0.46 
139 19.3855 12.6041 19.3855 -0.0682063 0.46 
28 19.7757 12.8399 19.7757 0.166064 0.46 
168 16.1929 12.9321 16.1929 0.325689 0.46 
178 16.6312 13.1459 16.6312 0.712821 0.46 
92 17.0492 12.9586 17.0492 -0.398282 0.46 
63 17.4023 13.249 17.4023 -0.147913 0.46 
225 17.8063 13.0279 17.8063 0.565681 0.46 
60 18.1979 13.2717 18.1979 0.579602 0.46 
66 18.5974 13.0519 18.5974 0.398674 0.46 
143 18.9864 13.2933 18.9864 0.245509 0.46 
214 19.3816 13.0696 19.3816 0.148464 0.46 
108 19.7723 13.3026 19.7723 0.292785 0.46 
165 16.4744 13.6656 16.4744 0.656029 0.46 
115 16.9747 13.4583 16.9747 -0.114843 0.46 
217 17.4257 13.7614 17.4257 -0.477277 0.46 
146 17.8068 13.5085 17.8068 0.311238 0.46 
68 18.2013 13.7546 18.2013 -0.00877255 0.46 
77 18.59 13.5159 18.59 0.341399 0.46 
130 18.9829 13.7712 18.9829 0.434794 0.46 
151 19.374 13.5345 19.374 0.539924 0.46 
29 19.7687 13.7685 19.7687 0.424984 0.46 
35 17.0723 14.0543 17.0723 0.229704 0.46 
118 17.8164 14.0251 17.8164 0.0114293 0.46 
65 18.5812 14.0291 18.5812 0.0715153 0.46 
59 19.3768 14.0071 19.3768 0.630967 0.46 
128 17.4996 14.4183 17.4996 1.40878 0.46 
82 18.1906 14.4009 18.1906 0.206537 0.46 
161 18.9782 14.2866 18.9782 -0.182364 0.46 
51 19.3859 14.5041 19.3859 0.529558 0.46 
23 19.7733 14.2363 19.7733 0.872132 0.46 
144 18.6217 14.6756 18.6217 0.850503 0.46 
86 19.0485 15.0234 19.0485 1.01321 0.46 
205 19.7184 14.8638 19.7184 0.486544 0.46 