ITEM: TIMESTEP
1000000
ITEM: NUMBER OF ATOMS
225
ITEM: BOX BOUNDS pp ff pp
0.0000000000000000e+00 4.0000000000000000e+01
0.0000000000000000e+00 2.0000000000000000e+01
-1.0000000000000000e+00 1.0000000000000000e+00
ITEM: ATOMS id x y x vy diameter 
1 19.2472 5.30792 19.2472 -0.00805967 0.46 
5 18.2795 5.52055 18.2795 0.0017961 0.46 
4 18.821 5.65531 18.821 -0.00519213 0.46 
6 19.7408 5.54315 19.7408 0.0109217 0.46 
81 17.8534 5.91638 17.8534 -0.0312706 0.46 
7 18.4263 6.02556 18.4263 -0.0105667 0.46 
10 18.9308 6.14793 18.9308 -0.0100619 0.46 
8 19.3222 5.84617 19.3222 -0.0111806 0.46 
9 19.7877 6.04902 19.7877 -0.00280969 0.46 
104 17.0305 6.37333 17.0305 0.0260998 0.46 
3 17.5638 6.35636 17.5638 0.0240935 0.46 
23 18.0874 6.39016 18.0874 -0.0155133 0.46 
25 18.582 6.47584 18.582 0.00147585 0.46 
26 19.0421 6.59502 19.0421 -0.00309549 0.46 
11 19.3983 6.31436 19.3983 -0.00369033 0.46 
13 19.8259 6.51043 19.8259 -0.0020129 0.46 
149 16.34 6.98354 16.34 -0.000570379 0.46 
60 16.8588 6.90395 16.8588 0.0319695 0.46 
2 17.3467 6.83302 17.3467 -0.00635662 0.46 
22 17.8176 6.79792 17.8176 0.0273476 0.46 
24 18.2769 6.82409 18.2769 0.00501746 0.46 
40 18.7225 6.902 18.7225 -0.00376566 0.46 
27 19.142 7.02351 19.142 -0.00116496 0.46 
12 19.4684 6.75649 19.4684 -0.00247817 0.46 
14 19.8572 6.9526 19.8572 -0.000364719 0.46 
70 16.2179 7.52679 16.2179 0.0190826 0.46 
63 16.7018 7.42436 16.7018 0.0213761 0.46 
110 17.1544 7.31968 17.1544 0.0414501 0.46 
21 17.5933 7.23968 17.5933 0.0235923 0.46 
38 18.0229 7.20923 18.0229 0.012185 0.46 
39 18.4451 7.23486 18.4451 0.00585095 0.46 
41 18.8518 7.3167 18.8518 0.00317124 0.46 
28 19.5292 7.18854 19.5292 0.000331976 0.46 
42 19.2305 7.44873 19.2305 0.00243895 0.46 
15 19.8816 7.38898 19.8816 -0.000202021 0.46 
151 15.7249 7.7287 15.7249 0.0733027 0.46 
80 16.5876 7.92234 16.5876 -0.0125726 0.46 
96 17.0144 7.80824 17.0144 0.00156763 0.46 
20 17.4215 7.70223 17.4215 0.00904078 0.46 
36 17.8207 7.62578 17.8207 0.0108003 0.46 
16 18.0649 7.99258 18.0649 0.00839059 0.46 
37 18.2196 7.60002 18.2196 0.0103837 0.46 
53 18.6073 7.63891 18.6073 0.00811581 0.46 
34 18.4293 7.99226 18.4293 0.00783444 0.46 
54 18.971 7.73914 18.971 0.00530472 0.46 
56 19.3093 7.88365 19.3093 0.000685206 0.46 
29 19.5796 7.62139 19.5796 0.000932516 0.46 
30 19.9012 7.82518 19.9012 -0.00070667 0.46 
119 15.6253 8.32434 15.6253 0.169801 0.46 
19 16.1365 8.06402 16.1365 0.0392562 0.46 
78 16.5154 8.40171 16.5154 0.0186991 0.46 
106 16.9278 8.27788 16.9278 0.0164947 0.46 
61 17.3197 8.16219 17.3197 0.0166413 0.46 
83 17.6959 8.06177 17.6959 0.0150193 0.46 
98 18.1086 8.38632 18.1086 0.00745985 0.46 
90 18.4663 8.38243 18.4663 0.0106153 0.46 
35 18.7798 8.06895 18.7798 0.00538283 0.46 
51 19.1122 8.19329 19.1122 -5.61162e-05 0.46 
52 19.4224 8.35352 19.4224 0.00181112 0.46 
43 19.6258 8.06002 19.6258 -0.00109392 0.46 
44 19.9165 8.26797 19.9165 -0.00110393 0.46 
31 15.3113 8.8273 15.3113 0.0755238 0.46 
92 16.0777 8.54859 16.0777 0.049647 0.46 
153 16.6645 8.81479 16.6645 0.0189521 0.46 
86 17.042 8.69169 17.042 0.020203 0.46 
62 17.7579 8.47008 17.7579 0.0154542 0.46 
72 17.404 8.57389 17.404 0.0192032 0.46 
58 17.9233 8.84264 17.9233 0.00939028 0.46 
18 18.2651 8.75581 18.2651 0.00492629 0.46 
162 18.6218 8.77525 18.6218 0.0239134 0.46 
133 18.8094 8.46044 18.8094 0.00806807 0.46 
73 19.12 8.58422 19.12 0.00806385 0.46 
84 19.3987 8.75181 19.3987 0.0198348 0.46 
68 19.7046 8.54153 19.7046 0.00529407 0.46 
45 19.937 8.75984 19.937 0.000102577 0.46 
75 15.7955 8.96367 15.7955 0.205772 0.46 
163 16.2748 8.96262 16.2748 0.00198021 0.46 
93 16.8642 9.19582 16.8642 0.012911 0.46 
50 17.2276 9.06651 17.2276 0.0157056 0.46 
74 17.5789 8.94756 17.5789 0.0123459 0.46 
76 17.9923 9.22912 17.9923 0.0145815 0.46 
77 18.3455 9.13003 18.3455 0.00996204 0.46 
102 18.6956 9.14187 18.6956 0.0320045 0.46 
112 18.9834 8.90923 18.9834 0.0306555 0.46 
107 19.0342 9.28651 19.0342 0.046785 0.46 
85 19.3222 9.11203 19.3222 0.041205 0.46 
89 19.6422 8.96968 19.6422 0.0266156 0.46 
55 19.9343 9.11671 19.9343 0.0186845 0.46 
94 14.0508 9.34755 14.0508 -0.674919 0.46 
67 15.1147 9.46493 15.1147 -0.0528995 0.46 
32 15.6146 9.47142 15.6146 0.0120983 0.46 
148 16.067 9.38415 16.067 0.0457934 0.46 
99 16.4354 9.76879 16.4354 0.032811 0.46 
113 16.4962 9.35488 16.4962 -0.00539713 0.46 
48 16.8657 9.62821 16.8657 0.0189471 0.46 
47 17.2527 9.47328 17.2527 0.0225938 0.46 
88 17.5892 9.73613 17.5892 0.0192659 0.46 
71 17.6321 9.34204 17.6321 0.0185881 0.46 
115 17.9756 9.62708 17.9756 0.0160005 0.46 
118 18.3286 9.50159 18.3286 0.0150042 0.46 
138 18.725 9.49759 18.725 0.0369379 0.46 
150 19.1138 9.62481 19.1138 0.0588211 0.46 
97 19.4064 9.48472 19.4064 0.0579048 0.46 
46 19.6706 9.33872 19.6706 0.0230892 0.46 
66 19.7565 9.71625 19.7565 0.10932 0.46 
57 19.9676 9.46808 19.9676 0.0517871 0.46 
180 15.432 9.97607 15.432 0.0904862 0.46 
17 15.9662 9.84839 15.9662 -0.0314986 0.46 
33 16.3094 10.1792 16.3094 0.0334448 0.46 
114 16.7829 10.0485 16.7829 0.00815818 0.46 
170 17.2021 9.89135 17.2021 0.0171638 0.46 
108 17.5246 10.147 17.5246 0.0187493 0.46 
137 17.8825 10.0158 17.8825 0.0148076 0.46 
154 18.2323 9.95563 18.2323 0.00920022 0.46 
120 18.5415 9.80019 18.5415 0.0186319 0.46 
144 18.623 10.1462 18.623 0.0122095 0.46 
143 18.8955 9.86463 18.8955 0.0518082 0.46 
140 19.1589 10.0927 19.1589 -0.00751061 0.46 
129 19.4165 9.84425 19.4165 0.0235775 0.46 
95 19.5864 10.1245 19.5864 -0.0226513 0.46 
178 19.9608 10.1672 19.9608 -0.142843 0.46 
109 20.133 9.86709 20.133 -0.16291 0.46 
87 15.2869 10.546 15.2869 0.242616 0.46 
130 15.8268 10.3156 15.8268 -0.037776 0.46 
49 16.2101 10.6169 16.2101 -0.0333731 0.46 
128 16.6519 10.4544 16.6519 -0.00526102 0.46 
152 17.117 10.3024 17.117 0.0126074 0.46 
169 17.459 10.5251 17.459 0.0161856 0.46 
103 17.8966 10.3923 17.8966 0.0119391 0.46 
65 18.2938 10.3242 18.2938 0.00332192 0.46 
124 18.5722 10.5833 18.5722 -0.019692 0.46 
165 18.8991 10.3327 18.8991 -0.0267431 0.46 
79 18.9773 10.6454 18.9773 -0.0242173 0.46 
187 19.3009 10.4082 19.3009 -0.047176 0.46 
116 19.6225 10.4993 19.6225 -0.0646216 0.46 
182 19.9736 10.4744 19.9736 -0.0463093 0.46 
136 15.7399 10.8006 15.7399 -0.16199 0.46 
195 16.1225 11.0767 16.1225 -0.0902599 0.46 
105 16.568 10.8905 16.568 -0.0382287 0.46 
135 16.9908 10.6928 16.9908 0.00368069 0.46 
164 17.3173 10.9079 17.3173 0.00708295 0.46 
91 17.7545 10.7643 17.7545 0.00833221 0.46 
147 17.9546 11.079 17.9546 0.00186997 0.46 
134 18.168 10.6871 18.168 0.00103648 0.46 
177 18.3209 11.0253 18.3209 -0.00717062 0.46 
111 18.6634 10.9397 18.6634 -0.0342042 0.46 
131 19.0138 10.9845 19.0138 -0.0211844 0.46 
184 19.3258 10.7747 19.3258 -0.056756 0.46 
157 19.6073 10.9629 19.6073 -0.0281276 0.46 
142 19.8576 10.7506 19.8576 -0.0200086 0.46 
159 19.9475 11.0611 19.9475 -0.00871379 0.46 
125 15.4982 11.2431 15.4982 0.160335 0.46 
126 15.9548 11.5172 15.9548 -0.0909792 0.46 
100 16.4918 11.3447 16.4918 -0.136105 0.46 
158 16.9119 11.1302 16.9119 -0.0177822 0.46 
82 17.2025 11.3895 17.2025 -0.0167682 0.46 
64 17.5783 11.1749 17.5783 0.00267367 0.46 
167 17.9822 11.4581 17.9822 0.00478278 0.46 
172 18.3465 11.4113 18.3465 -0.0188491 0.46 
166 18.692 11.3216 18.692 -0.0342064 0.46 
117 19.0429 11.3313 19.0429 -0.0146678 0.46 
122 19.3546 11.1757 19.3546 -0.0257674 0.46 
198 19.5045 11.4994 19.5045 -0.0179803 0.46 
211 19.789 11.3291 19.789 -0.00855136 0.46 
69 15.5631 11.8563 15.5631 0.186178 0.46 
101 16.3312 11.7969 16.3312 -0.279958 0.46 
161 16.7987 11.6512 16.7987 -0.0809353 0.46 
179 17.1801 11.8072 17.1801 -0.0431237 0.46 
181 17.5793 11.5623 17.5793 0.00163181 0.46 
156 17.8178 11.8518 17.8178 -0.00341038 0.46 
155 18.1762 11.8519 18.1762 -0.0216634 0.46 
141 18.5164 11.7579 18.5164 -0.0308738 0.46 
132 18.8528 11.6916 18.8528 -0.0285051 0.46 
146 19.1994 11.6482 19.1994 -0.00966026 0.46 
185 19.3016 11.9876 19.3016 -0.00595806 0.46 
174 19.6243 11.8389 19.6243 -0.00877093 0.46 
194 19.9188 11.6464 19.9188 -0.0015595 0.46 
59 16.0309 12.1869 16.0309 0.276599 0.46 
121 16.656 12.1105 16.656 -0.133946 0.46 
160 17.0746 12.2627 17.0746 -0.0886896 0.46 
127 17.4828 12.0523 17.4828 -0.0191335 0.46 
212 17.8428 12.2776 17.8428 -0.0205078 0.46 
196 18.2263 12.249 18.2263 -0.0236973 0.46 
199 18.589 12.1462 18.589 -0.0280228 0.46 
183 18.9473 12.0633 18.9473 -0.0226183 0.46 
176 19.2 12.3796 19.2 -0.0127944 0.46 
193 19.5687 12.2506 19.5687 -0.00716036 0.46 
210 19.9038 12.0676 19.9038 -0.00573165 0.46 
168 16.2268 12.7028 16.2268 0.852821 0.46 
123 16.7151 12.587 16.7151 -0.162277 0.46 
145 17.1392 12.7871 17.1392 -0.0988697 0.46 
139 17.469 12.4701 17.469 -0.0425295 0.46 
186 17.6186 12.8517 17.6186 -0.0207003 0.46 
200 18.0156 12.6714 18.0156 -0.0199594 0.46 
171 18.4377 12.5941 18.4377 -0.0217299 0.46 
173 18.8234 12.4827 18.8234 -0.022081 0.46 
175 19.126 12.7847 19.126 -0.0142795 0.46 
192 19.5125 12.6469 19.5125 -0.00845553 0.46 
209 19.8814 12.4731 19.8814 -0.00365212 0.46 
225 19.8562 12.8771 19.8562 -0.00277938 0.46 
197 16.7489 13.1455 16.7489 -0.14577 0.46 
214 17.3349 13.2289 17.3349 -0.0301651 0.46 
202 17.8917 13.168 17.8917 -0.020178 0.46 
188 18.3068 13.0167 18.3068 -0.0204204 0.46 
189 18.7288 12.9089 18.7288 -0.0193013 0.46 
191 19.0571 13.2057 19.0571 -0.0158402 0.46 
208 19.4657 13.0538 19.4657 -0.0081301 0.46 
224 19.8323 13.2937 19.8323 -0.00209079 0.46 
201 17.078 13.6644 17.078 -0.130037 0.46 
203 17.6756 13.5905 17.6756 -0.100969 0.46 
204 18.1936 13.494 18.1936 -0.00470054 0.46 
190 18.6289 13.3421 18.6289 -0.0296467 0.46 
206 18.9818 13.6447 18.9818 0.00160125 0.46 
207 19.4183 13.4776 19.4183 -0.00392207 0.46 
223 19.8051 13.7303 19.8051 0.000528391 0.46 
213 17.5087 14.0979 17.5087 -0.0713824 0.46 
218 18.0312 13.9697 18.0312 -0.0331938 0.46 
205 18.5297 13.8156 18.5297 -0.037571 0.46 
220 18.8949 14.1236 18.8949 0.0374512 0.46 
221 19.364 13.9261 19.364 0.00540812 0.46 
222 19.772 14.1999 19.772 0.00831655 0.46 
219 18.3845 14.3422 18.3845 -0.0197703 0.46 
215 19.3026 14.4166 19.3026 0.024646 0.46 
217 18.842 14.677 18.842 -0.0478847 0.46 
216 19.7027 14.7356 19.7027 -0.0035099 0.46 