ITEM: TIMESTEP
1000000
ITEM: NUMBER OF ATOMS
225
ITEM: BOX BOUNDS pp ff pp
0.0000000000000000e+00 4.0000000000000000e+01
0.0000000000000000e+00 2.0000000000000000e+01
-1.0000000000000000e+00 1.0000000000000000e+00
ITEM: ATOMS id x y x vy diameter 
8 19.0641 3.95734 19.0641 -0.0131657 0.46 
6 17.8923 4.15488 17.8923 -0.0639149 0.46 
7 18.5317 4.37185 18.5317 -0.0165792 0.46 
11 19.631 4.28669 19.631 0.0031077 0.46 
132 16.4541 4.83579 16.4541 -0.144068 0.46 
4 17.3607 4.61719 17.3607 -0.0673697 0.46 
21 18.022 4.79505 18.022 -0.0667392 0.46 
9 19.1155 4.63964 19.1155 -0.022954 0.46 
115 16.9871 5.14678 16.9871 -0.0104966 0.46 
3 17.5809 5.23982 17.5809 0.031933 0.46 
23 18.6156 4.99581 18.6156 -0.0212838 0.46 
25 19.1764 5.23151 19.1764 -0.00772641 0.46 
10 19.6726 4.90875 19.6726 -0.0368231 0.46 
150 15.998 5.35381 15.998 -0.0258126 0.46 
53 16.5637 5.6244 16.5637 0.0854851 0.46 
162 17.1519 5.73942 17.1519 0.0474686 0.46 
22 18.154 5.38739 18.154 0.0292891 0.46 
24 18.7085 5.57324 18.7085 -0.0334297 0.46 
13 19.7023 5.48563 19.7023 -0.0532028 0.46 
159 15.5831 5.84921 15.5831 0.066029 0.46 
103 16.1596 6.12042 16.1596 0.0363352 0.46 
5 17.7152 5.82101 17.7152 0.0283667 0.46 
38 18.2629 5.94071 18.2629 -0.0086288 0.46 
27 18.7951 6.1181 18.7951 -0.0359471 0.46 
12 19.2391 5.79661 19.2391 -0.0484985 0.46 
14 19.7349 6.04683 19.7349 -0.0174999 0.46 
68 15.1893 6.34834 15.1893 0.0522542 0.46 
107 15.7753 6.61507 15.7753 0.0817549 0.46 
45 16.7447 6.22433 16.7447 0.024615 0.46 
2 17.3004 6.29627 17.3004 -0.0210992 0.46 
34 17.8412 6.36068 17.8412 -0.0336351 0.46 
20 18.369 6.45997 18.369 -0.00718327 0.46 
37 18.8899 6.64372 18.8899 -0.0351912 0.46 
28 19.3036 6.34297 19.3036 -0.024369 0.46 
15 19.7674 6.60415 19.7674 0.00999879 0.46 
95 14.9304 6.91993 14.9304 0.0177405 0.46 
67 16.367 6.70691 16.367 -0.097642 0.46 
96 16.925 6.77377 16.925 -0.0157604 0.46 
19 17.4572 6.82231 17.4572 0.00885785 0.46 
36 17.9748 6.87645 17.9748 -0.0160917 0.46 
51 18.4821 6.95199 18.4821 -0.00901021 0.46 
26 19.3716 6.8852 19.3716 -0.0193404 0.46 
62 14.544 7.41451 14.544 0.11137 0.46 
114 15.493 7.15823 15.493 0.0909288 0.46 
102 16.0622 7.20453 16.0622 0.0340621 0.46 
169 16.6094 7.25997 16.6094 0.0381921 0.46 
129 17.1382 7.29942 17.1382 0.0218578 0.46 
1 17.6457 7.33321 17.6457 -0.0382155 0.46 
17 18.133 7.37525 18.133 0.00160647 0.46 
18 18.6047 7.42651 18.6047 -0.016459 0.46 
39 18.9857 7.15999 18.9857 -0.00964111 0.46 
40 19.3609 7.47876 19.3609 -0.0162945 0.46 
42 19.7701 7.18323 19.7701 -0.0305958 0.46 
47 14.0108 7.90772 14.0108 0.205935 0.46 
127 15.1829 7.66895 15.1829 0.0455893 0.46 
65 15.7888 7.72872 15.7888 0.0932413 0.46 
152 16.3548 7.76115 16.3548 0.0685931 0.46 
78 16.9023 7.78094 16.9023 0.0284083 0.46 
110 17.4297 7.80461 17.4297 -0.0334565 0.46 
16 17.9369 7.83219 17.9369 -0.0373558 0.46 
32 18.4358 7.86131 18.4358 0.00619321 0.46 
48 18.9559 7.74223 18.9559 -0.0221583 0.46 
29 19.7665 7.7193 19.7665 -0.0345408 0.46 
134 14.6416 8.06931 14.6416 0.123296 0.46 
72 15.1959 8.25758 15.1959 -0.0332287 0.46 
139 15.7327 8.28452 15.7327 0.0521296 0.46 
106 16.2567 8.28689 16.2567 0.0410903 0.46 
101 16.7701 8.28456 16.7701 0.0180687 0.46 
120 17.2788 8.28579 17.2788 -0.0245714 0.46 
81 17.7783 8.29439 17.7783 -0.00976061 0.46 
141 18.2779 8.29785 18.2779 0.00393803 0.46 
97 18.8011 8.20356 18.8011 -0.0968459 0.46 
35 19.3167 8.04471 19.3167 -0.107398 0.46 
52 19.7827 8.19751 19.7827 -0.0323076 0.46 
193 14.2718 8.60866 14.2718 0.0994248 0.46 
69 14.8823 8.75152 14.8823 0.0827543 0.46 
148 15.455 8.80743 15.455 -0.0271406 0.46 
43 16.0041 8.7924 16.0041 0.0577821 0.46 
60 16.5326 8.77997 16.5326 0.0358358 0.46 
113 17.0469 8.76017 17.0469 -0.0178182 0.46 
105 17.5541 8.74529 17.5541 -0.00523987 0.46 
124 18.0577 8.73995 18.0577 -0.0183294 0.46 
84 18.5413 8.70293 18.5413 -0.0409902 0.46 
33 18.9821 8.61478 18.9821 -0.0528222 0.46 
49 19.4048 8.51323 19.4048 -0.139344 0.46 
50 19.8158 8.67711 19.8158 0.0168062 0.46 
131 13.9857 9.19469 13.9857 -0.116653 0.46 
94 14.6127 9.28256 14.6127 -0.0397315 0.46 
198 15.2078 9.31537 15.2078 -0.0180399 0.46 
66 15.7815 9.30067 15.7815 0.0350444 0.46 
61 16.3208 9.27449 16.3208 -0.000943309 0.46 
73 16.8417 9.2429 16.8417 0.0557926 0.46 
90 17.3505 9.20569 17.3505 0.0264076 0.46 
86 17.8598 9.16976 17.8598 0.0171232 0.46 
147 18.4086 9.1571 18.4086 -0.00552704 0.46 
70 18.9347 9.09656 18.9347 0.105707 0.46 
88 19.3743 8.97185 19.3743 0.311393 0.46 
179 19.7912 9.15884 19.7912 0.112281 0.46 
195 13.5542 9.53388 13.5542 -1.13332 0.46 
44 16.0871 9.77564 16.0871 0.00747501 0.46 
160 16.6193 9.73283 16.6193 0.0781766 0.46 
57 17.1385 9.67994 17.1385 0.0299643 0.46 
167 17.6465 9.62289 17.6465 0.0243573 0.46 
77 18.1553 9.54944 18.1553 0.0784594 0.46 
93 18.7728 9.50176 18.7728 -0.0583952 0.46 
122 19.4324 9.45163 19.4324 0.457148 0.46 
92 19.1509 9.76916 19.1509 0.655179 0.46 
194 19.9128 9.67802 19.9128 -0.948779 0.46 
58 13.9226 9.8472 13.9226 0.978537 0.46 
176 14.344 9.84868 14.344 0.583416 0.46 
41 14.9433 9.83753 14.9433 -0.0638894 0.46 
59 15.5302 9.80936 15.5302 0.00510626 0.46 
177 16.948 10.165 16.948 0.0792438 0.46 
109 17.4607 10.0942 17.4607 0.0591774 0.46 
76 17.9704 10.003 17.9704 0.0393806 0.46 
75 18.4972 9.85659 18.4972 -0.100162 0.46 
117 18.8118 10.1693 18.8118 -0.188309 0.46 
164 19.4044 10.1656 19.4044 -0.0809841 0.46 
149 19.8946 10.1639 19.8946 -0.560619 0.46 
123 13.9959 10.4697 13.9959 0.156781 0.46 
191 14.6855 10.3729 14.6855 -0.122964 0.46 
168 15.294 10.328 15.294 -0.0270513 0.46 
63 15.8663 10.2792 15.8663 0.055386 0.46 
161 16.4164 10.225 16.4164 0.0334211 0.46 
192 16.7403 10.652 16.7403 0.0106878 0.46 
135 17.2747 10.5766 17.2747 0.0182308 0.46 
125 17.7947 10.4742 17.7947 -0.00426407 0.46 
155 18.3117 10.3343 18.3117 -0.117538 0.46 
126 19.0596 10.5292 19.0596 -0.215392 0.46 
154 19.8456 10.6315 19.8456 -0.0666262 0.46 
130 14.4373 10.9265 14.4373 0.0280558 0.46 
175 15.0426 10.8707 15.0426 0.00486647 0.46 
46 15.6275 10.7935 15.6275 -0.0385725 0.46 
30 16.1914 10.7216 16.1914 0.0152903 0.46 
111 17.0753 11.0585 17.0753 -0.00170783 0.46 
165 17.6163 10.9587 17.6163 -0.0181799 0.46 
146 18.1344 10.8273 18.1344 -0.109434 0.46 
140 18.6185 10.6854 18.6185 -0.187176 0.46 
133 19.0499 10.9931 19.0499 -0.137738 0.46 
87 19.4524 10.7103 19.4524 -0.200328 0.46 
210 19.7881 11.0852 19.7881 -0.0150133 0.46 
31 14.069 11.4621 14.069 -0.0241554 0.46 
121 14.7897 11.4367 14.7897 -0.130595 0.46 
55 15.3986 11.3291 15.3986 -0.0280332 0.46 
112 15.9733 11.2353 15.9733 -0.0450837 0.46 
180 16.5277 11.1457 16.5277 -0.0645453 0.46 
145 17.2761 11.5138 17.2761 0.0379224 0.46 
104 17.7348 11.4256 17.7348 0.0525209 0.46 
83 18.1751 11.3041 18.1751 -0.0314433 0.46 
151 18.609 11.1577 18.609 -0.130242 0.46 
143 18.9714 11.4923 18.9714 -0.115522 0.46 
207 19.3989 11.2997 19.3989 -0.0952652 0.46 
170 15.169 11.8955 15.169 -0.0343832 0.46 
137 15.748 11.7795 15.748 -0.0742229 0.46 
116 16.2838 11.6805 16.2838 0.0159915 0.46 
54 16.7927 11.5919 16.7927 -0.0285807 0.46 
64 17.6068 11.936 17.6068 0.0569603 0.46 
85 18.0797 11.8175 18.0797 -0.0150994 0.46 
142 18.5331 11.6649 18.5331 -0.0584467 0.46 
174 18.9215 11.9923 18.9215 -0.046672 0.46 
190 19.3657 11.7958 19.3657 -0.069463 0.46 
209 19.7943 11.5796 19.7943 -0.0182609 0.46 
184 14.5037 12.0001 14.5037 -0.109869 0.46 
79 15.5352 12.3455 15.5352 0.0159188 0.46 
136 16.0902 12.2425 16.0902 -0.0506231 0.46 
56 16.6109 12.1309 16.6109 -0.0350767 0.46 
138 17.1167 12.037 17.1167 -0.0149543 0.46 
163 17.9874 12.3225 17.9874 0.0310598 0.46 
166 18.4632 12.1712 18.4632 -0.0147056 0.46 
189 19.3321 12.2927 19.3321 -0.0502604 0.46 
205 19.779 12.0751 19.779 -0.0357125 0.46 
118 14.3653 12.7355 14.3653 0.0639977 0.46 
108 14.9392 12.4691 14.9392 -0.0486987 0.46 
80 15.9214 12.8018 15.9214 -0.0239425 0.46 
119 16.4682 12.6864 16.4682 0.0200972 0.46 
89 16.9894 12.5648 16.9894 0.0334885 0.46 
91 17.4964 12.4478 17.4964 0.0434582 0.46 
183 17.9046 12.8342 17.9046 0.0120375 0.46 
171 18.396 12.6774 18.396 0.0074091 0.46 
158 18.8728 12.4968 18.8728 -0.0219328 0.46 
173 19.2983 12.7977 19.2983 -0.027438 0.46 
225 19.7614 12.5731 19.7614 -0.0524937 0.46 
156 14.8399 13.3092 14.8399 -0.0323071 0.46 
71 15.3382 12.9289 15.3382 -0.0891126 0.46 
100 16.3142 13.2462 16.3142 -0.0448153 0.46 
82 16.865 13.1076 16.865 0.0896587 0.46 
128 17.3953 12.9694 17.3953 0.0306112 0.46 
185 18.3265 13.1948 18.3265 0.00705663 0.46 
157 18.8198 13.0072 18.8198 -0.00921586 0.46 
220 19.2669 13.3123 19.2669 -0.0209901 0.46 
206 19.7449 13.0807 19.7449 -0.0295234 0.46 
74 15.7232 13.39 15.7232 -0.11548 0.46 
153 16.7313 13.6752 16.7313 -0.0135617 0.46 
99 17.2808 13.5096 17.2808 -0.00124596 0.46 
197 17.8128 13.3594 17.8128 0.00667956 0.46 
172 18.2616 13.7235 18.2616 -0.00740063 0.46 
188 18.7748 13.5288 18.7748 -0.00638221 0.46 
208 19.7292 13.6009 19.7292 -0.0315119 0.46 
98 15.3203 13.8873 15.3203 -0.014385 0.46 
178 16.1348 13.8299 16.1348 -0.0424492 0.46 
196 17.1676 14.0762 17.1676 0.0488249 0.46 
182 17.7263 13.9028 17.7263 0.00882964 0.46 
204 18.7232 14.067 18.7232 -0.00283909 0.46 
222 19.2358 13.8415 19.2358 -0.0230937 0.46 
224 19.7113 14.1388 19.7113 -0.019397 0.46 
211 15.8379 14.3893 15.8379 0.0841868 0.46 
144 16.5608 14.2576 16.5608 0.0309652 0.46 
200 17.0379 14.6625 17.0379 0.0455117 0.46 
186 17.6322 14.4694 17.6322 0.028567 0.46 
187 18.1868 14.2718 18.1868 0.00193927 0.46 
202 18.6636 14.6253 18.6636 0.0154997 0.46 
221 19.1982 14.3905 19.1982 0.0056836 0.46 
181 16.3532 14.8486 16.3532 0.0533386 0.46 
199 17.5235 15.074 17.5235 0.0639825 0.46 
201 18.1084 14.849 18.1084 0.0292726 0.46 
203 19.157 14.9652 19.157 0.0399648 0.46 
223 19.6875 14.7002 19.6875 0.0147497 0.46 
213 16.8672 15.2892 16.8672 0.0804309 0.46 
214 18.0378 15.4717 18.0378 0.00910263 0.46 
217 18.6013 15.2144 18.6013 0.0255008 0.46 
219 19.6566 15.3039 19.6566 0.0271987 0.46 
212 17.4287 15.7411 17.4287 0.0504609 0.46 
215 18.5228 15.9259 18.5228 0.0304412 0.46 
216 19.0852 15.59 19.0852 0.0588783 0.46 
218 19.587 15.9723 19.587 0.0711643 0.46 