ITEM: TIMESTEP
1000000
ITEM: NUMBER OF ATOMS
225
ITEM: BOX BOUNDS pp ff pp
0.0000000000000000e+00 4.0000000000000000e+01
0.0000000000000000e+00 2.0000000000000000e+01
-1.0000000000000000e+00 1.0000000000000000e+00
ITEM: ATOMS id x y x vy diameter 
103 18.561 4.18814 18.561 0.0802334 0.46 
225 19.5876 4.11566 19.5876 0.0785672 0.46 
151 17.3307 4.5926 17.3307 0.0694085 0.46 
224 18.034 4.65799 18.034 0.16633 0.46 
169 19.1513 4.5396 19.1513 0.266504 0.46 
80 19.6834 4.85221 19.6834 -0.0512755 0.46 
33 16.3626 5.13934 16.3626 -0.17707 0.46 
16 17.0096 5.20642 17.0096 0.0536103 0.46 
161 17.6204 5.15026 17.6204 -0.343516 0.46 
90 18.6572 4.89087 18.6572 0.0581966 0.46 
94 18.245 5.28492 18.245 -0.145829 0.46 
175 19.2102 5.19425 19.2102 -0.0735475 0.46 
38 15.6081 5.61502 15.6081 -0.588314 0.46 
211 16.2065 5.72958 16.2065 0.113517 0.46 
191 17.8458 5.67345 17.8458 -0.225927 0.46 
109 18.7635 5.53931 18.7635 0.28572 0.46 
88 19.7191 5.48361 19.7191 -0.0118821 0.46 
120 14.273 5.88238 14.273 0.121468 0.46 
158 15.3641 6.20555 15.3641 -0.01335 0.46 
142 16.774 5.79915 16.774 -0.0237827 0.46 
66 17.3253 5.78838 17.3253 -0.0304882 0.46 
78 18.3461 5.91276 18.3461 0.0907501 0.46 
63 18.8442 6.141 18.8442 0.505962 0.46 
209 19.2858 5.79766 19.2858 0.231381 0.46 
52 19.7288 6.11573 19.7288 0.272741 0.46 
7 14.7735 6.25185 14.7735 0.595187 0.46 
219 15.7391 6.65696 15.7391 -0.0370619 0.46 
12 16.2158 6.35712 16.2158 0.119078 0.46 
192 16.7857 6.37583 16.7857 0.112388 0.46 
162 17.3683 6.35162 17.3683 -0.0803815 0.46 
140 17.8926 6.22473 17.8926 0.118578 0.46 
203 18.3931 6.48835 18.3931 0.274965 0.46 
50 19.2966 6.41066 19.2966 0.148148 0.46 
24 15.0174 6.76784 15.0174 0.509189 0.46 
67 16.2001 6.94896 16.2001 0.029827 0.46 
177 16.7522 6.91077 16.7522 0.05795 0.46 
70 17.3289 6.87691 17.3289 0.290482 0.46 
6 17.8815 6.76944 17.8815 0.0695655 0.46 
108 18.4788 7.0311 18.4788 0.366202 0.46 
206 18.8835 6.71408 18.8835 0.0719324 0.46 
21 19.2905 6.98735 19.2905 0.303621 0.46 
208 19.7417 6.6916 19.7417 -0.378462 0.46 
99 14.6731 7.27361 14.6731 -0.115458 0.46 
51 15.4515 7.15141 15.4515 -0.411432 0.46 
48 15.9168 7.46431 15.9168 -0.0805828 0.46 
35 16.5043 7.46951 16.5043 0.242038 0.46 
222 17.0496 7.39982 17.0496 0.313254 0.46 
104 17.5876 7.36761 17.5876 0.219378 0.46 
87 18.0719 7.27496 18.0719 -0.127618 0.46 
34 18.8661 7.31474 18.8661 0.216727 0.46 
116 19.3702 7.49071 19.3702 0.0326908 0.46 
115 19.7681 7.22982 19.7681 -0.116967 0.46 
84 13.9671 7.80645 13.9671 -0.637719 0.46 
164 14.63 7.8785 14.63 -0.0186342 0.46 
91 15.2364 7.68153 15.2364 -0.0641103 0.46 
71 16.3668 7.98276 16.3668 -0.00129891 0.46 
149 16.9206 7.9264 16.9206 0.311211 0.46 
56 17.42 7.86499 17.42 -0.234118 0.46 
43 17.9427 7.77604 17.9427 -0.133719 0.46 
148 18.4409 7.62275 18.4409 -0.144454 0.46 
199 18.9901 7.78734 18.9901 0.0527431 0.46 
133 19.7604 7.7904 19.7604 -0.0430838 0.46 
86 15.2468 8.25411 15.2468 0.319158 0.46 
118 15.8215 8.0043 15.8215 -0.309013 0.46 
122 16.7299 8.41555 16.7299 -0.180108 0.46 
49 17.2082 8.39549 17.2082 -0.380835 0.46 
138 17.6905 8.28229 17.6905 0.029795 0.46 
14 18.1754 8.23162 18.1754 0.332494 0.46 
136 18.6095 8.07931 18.6095 0.236187 0.46 
204 19.0266 8.35271 19.0266 -0.0760768 0.46 
157 19.3778 8.05572 19.3778 0.0655932 0.46 
76 19.7733 8.32779 19.7733 0.156706 0.46 
85 14.0179 8.62783 14.0179 -0.223528 0.46 
198 14.6903 8.44619 14.6903 -0.0243215 0.46 
40 15.3098 8.85889 15.3098 0.333897 0.46 
121 15.7622 8.52059 15.7622 -0.151945 0.46 
20 16.2894 8.56614 16.2894 0.0162264 0.46 
89 17.69 8.772 17.69 0.10693 0.46 
193 18.1661 8.70736 18.1661 0.310109 0.46 
65 18.6075 8.56392 18.6075 -0.0334772 0.46 
202 18.9643 8.88203 18.9643 0.268091 0.46 
131 19.3918 8.63473 19.3918 0.139234 0.46 
101 9.47167 8.98758 9.47167 -0.0770954 0.46 
112 14.2997 9.24862 14.2997 -0.279223 0.46 
155 14.7566 9.01509 14.7566 0.115479 0.46 
1 15.7672 9.14692 15.7672 0.280033 0.46 
57 16.2456 9.0617 16.2456 -0.357474 0.46 
17 16.7249 8.91911 16.7249 -0.116907 0.46 
5 17.214 8.89325 17.214 -0.28756 0.46 
129 17.5829 9.28353 17.5829 -0.269072 0.46 
165 18.0642 9.16393 18.0642 -0.0922583 0.46 
195 18.5452 9.0813 18.5452 0.175451 0.46 
107 19.375 9.19133 19.375 0.228023 0.46 
3 19.7643 8.91454 19.7643 0.219631 0.46 
30 13.392 9.37347 13.392 -1.06578 0.46 
114 13.8575 9.55606 13.8575 0.561805 0.46 
147 14.667 9.73219 14.667 -0.240035 0.46 
98 15.113 9.4529 15.113 -0.114255 0.46 
215 15.6276 9.65154 15.6276 -0.23703 0.46 
154 16.1626 9.58248 16.1626 -0.0527906 0.46 
207 16.632 9.45326 16.632 -0.0660944 0.46 
167 17.0989 9.39218 17.0989 -0.0585629 0.46 
15 17.9522 9.67062 17.9522 -0.123874 0.46 
18 18.4073 9.53382 18.4073 0.0949178 0.46 
60 18.9664 9.39148 18.9664 0.298207 0.46 
187 19.5019 9.77141 19.5019 0.866585 0.46 
55 19.7785 9.4049 19.7785 0.206987 0.46 
123 13.97 10.181 13.97 -0.127042 0.46 
218 14.4712 10.1871 14.4712 0.273006 0.46 
72 15.4115 10.1563 15.4115 0.0937939 0.46 
46 15.9603 10.091 15.9603 0.372512 0.46 
23 16.4709 10.0048 16.4709 -0.177633 0.46 
45 16.9518 9.90093 16.9518 -0.0555525 0.46 
58 17.4443 9.78585 17.4443 -0.0273984 0.46 
137 17.8137 10.14 17.8137 0.348595 0.46 
214 18.296 10.041 18.296 -0.423112 0.46 
111 18.7692 9.81931 18.7692 0.898107 0.46 
13 19.1517 10.0777 19.1517 -0.233074 0.46 
2 20.9382 10.108 20.9382 0.0665711 0.46 
144 13.6214 10.5433 13.6214 0.416123 0.46 
156 14.9433 10.3517 14.9433 0.156837 0.46 
189 15.7916 10.6178 15.7916 0.000732829 0.46 
19 16.315 10.5171 16.315 0.363458 0.46 
106 16.8252 10.4268 16.8252 -0.264999 0.46 
110 17.3194 10.2624 17.3194 0.195048 0.46 
54 17.6859 10.6059 17.6859 0.437531 0.46 
105 18.2371 10.5285 18.2371 0.322279 0.46 
82 18.7004 10.3235 18.7004 0.214197 0.46 
205 19.3227 10.5091 19.3227 -0.622673 0.46 
37 19.7718 10.605 19.7718 -0.492913 0.46 
172 12.2376 10.7168 12.2376 0.506272 0.46 
8 14.6388 10.8838 14.6388 -0.314153 0.46 
153 15.2734 10.745 15.2734 0.300979 0.46 
125 16.1212 11.0496 16.1212 0.162237 0.46 
28 16.6836 10.9518 16.6836 0.231784 0.46 
184 17.1675 10.7979 17.1675 -0.0484159 0.46 
44 17.9926 10.9766 17.9926 0.243266 0.46 
130 18.4806 10.9202 18.4806 -0.0709635 0.46 
179 18.9056 10.7398 18.9056 -0.286646 0.46 
185 19.3399 10.9687 19.3399 0.174704 0.46 
194 13.7249 11.1974 13.7249 1.08312 0.46 
102 14.2361 11.288 14.2361 0.140063 0.46 
210 14.8997 11.4103 14.8997 0.298593 0.46 
183 15.5065 11.1976 15.5065 -0.0533273 0.46 
188 16.4892 11.454 16.4892 -0.00804859 0.46 
32 17.0426 11.3343 17.0426 -0.190395 0.46 
160 17.5322 11.1394 17.5322 0.0766326 0.46 
163 17.7869 11.5437 17.7869 0.0150314 0.46 
134 18.2532 11.3633 18.2532 0.167364 0.46 
126 18.8493 11.2368 18.8493 -0.324047 0.46 
213 19.3698 11.4262 19.3698 -0.361376 0.46 
217 19.7751 11.1261 19.7751 -0.194281 0.46 
127 13.8365 11.8239 13.8365 0.580716 0.46 
186 14.5428 11.8982 14.5428 -0.217718 0.46 
95 15.3303 11.7252 15.3303 -0.370582 0.46 
143 15.9109 11.5864 15.9109 -0.200828 0.46 
196 16.2469 11.9996 16.2469 -0.246568 0.46 
97 16.8301 11.8567 16.8301 -0.245153 0.46 
174 17.3206 11.7294 17.3206 0.053836 0.46 
22 18.0727 11.924 18.0727 -0.519101 0.46 
139 18.5256 11.7485 18.5256 0.331362 0.46 
53 18.9842 11.6882 18.9842 -0.36362 0.46 
128 19.3827 11.9668 19.3827 0.0063108 0.46 
75 19.7705 11.6857 19.7705 -0.275216 0.46 
69 11.4171 12.443 11.4171 -0.368415 0.46 
42 15.179 12.2797 15.179 -0.136878 0.46 
31 15.6955 12.2346 15.6955 -0.469553 0.46 
113 16.646 12.3725 16.646 -0.083107 0.46 
223 17.1717 12.3011 17.1717 -0.0754474 0.46 
26 17.6233 12.1037 17.6233 0.103188 0.46 
83 18.4675 12.2768 18.4675 0.675269 0.46 
176 18.9349 12.1841 18.9349 -0.0137532 0.46 
197 19.7718 12.2449 19.7718 0.25222 0.46 
47 14.6082 12.5006 14.6082 -0.277382 0.46 
39 15.6742 12.8771 15.6742 -0.229056 0.46 
27 16.1712 12.594 16.1712 -0.166766 0.46 
36 16.9958 12.8009 16.9958 0.0629086 0.46 
180 17.5538 12.6745 17.5538 -0.0678941 0.46 
150 18.0157 12.4555 18.0157 0.202081 0.46 
171 18.419 12.8318 18.419 0.107697 0.46 
145 18.8752 12.664 18.8752 -0.428718 0.46 
141 19.344 12.5253 19.344 -0.316149 0.46 
200 19.7645 12.7913 19.7645 -0.738537 0.46 
190 14.0434 12.927 14.0434 -0.119581 0.46 
61 14.6686 13.3288 14.6686 -0.281853 0.46 
92 15.1125 12.9116 15.1125 -0.099902 0.46 
201 16.4862 13.0456 16.4862 -0.251531 0.46 
73 17.3742 13.1914 17.3742 0.0912273 0.46 
146 17.9174 13.0385 17.9174 0.0542583 0.46 
59 18.8323 13.1954 18.8323 -0.0924052 0.46 
74 19.3251 13.0436 19.3251 -0.192719 0.46 
25 15.4082 13.475 15.4082 -0.478673 0.46 
159 15.9916 13.3487 15.9916 -0.146874 0.46 
68 16.8387 13.4682 16.8387 -0.322565 0.46 
178 17.8169 13.5347 17.8169 0.660366 0.46 
9 18.3423 13.4028 18.3423 -0.00181242 0.46 
152 18.7726 13.748 18.7726 -0.215165 0.46 
181 19.2959 13.5528 19.2959 -0.270097 0.46 
100 19.7503 13.3343 19.7503 -0.248309 0.46 
29 15.0696 13.9149 15.0696 -0.160315 0.46 
4 15.7224 14.0576 15.7224 -0.0247435 0.46 
77 16.3288 13.808 16.3288 -0.0388336 0.46 
221 16.796 14.1239 16.796 -0.121843 0.46 
93 17.2946 13.7801 17.2946 -0.299713 0.46 
173 17.7244 14.1203 17.7244 0.268914 0.46 
11 18.2337 13.9271 18.2337 0.312773 0.46 
81 19.2306 14.1267 19.2306 -0.224506 0.46 
212 19.706 13.8648 19.706 -0.032403 0.46 
135 16.2323 14.5028 16.2323 -0.102867 0.46 
62 17.2434 14.427 17.2434 0.0347928 0.46 
170 18.2111 14.4792 18.2111 0.524889 0.46 
117 18.7129 14.3174 18.7129 -0.405404 0.46 
216 19.7059 14.4576 19.7059 -0.167383 0.46 
10 16.7878 14.8708 16.7878 -0.273413 0.46 
220 17.7304 14.7268 17.7304 -0.0167636 0.46 
168 18.6428 14.9236 18.6428 -0.153136 0.46 
64 19.1853 14.6971 19.1853 0.164054 0.46 
166 19.6767 15.0308 19.6767 0.185684 0.46 
182 17.3276 15.2378 17.3276 -0.0924006 0.46 
119 18.109 15.1694 18.109 0.0673658 0.46 
96 19.1264 15.2899 19.1264 0.00980965 0.46 
124 17.8531 15.7649 17.8531 -0.0194813 0.46 
79 18.5543 15.6336 18.5543 -0.0970035 0.46 
132 19.6369 15.6587 19.6369 -0.101678 0.46 
41 19.0986 16.0408 19.0986 -0.0510157 0.46 