ITEM: TIMESTEP
1000000
ITEM: NUMBER OF ATOMS
225
ITEM: BOX BOUNDS pp ff pp
0.0000000000000000e+00 4.0000000000000000e+01
0.0000000000000000e+00 2.0000000000000000e+01
-1.0000000000000000e+00 1.0000000000000000e+00
ITEM: ATOMS id x y vx vy diameter 
148 18.9319 5.08743 0.0505701 -0.00433835 0.46 
3 19.7165 5.08851 -0.0364425 0.0313944 0.46 
83 17.6682 5.49034 0.0888146 -0.0752222 0.46 
104 18.1077 5.75482 0.0173184 0.0191506 0.46 
1 18.454 5.37938 -0.0587213 0.0862541 0.46 
2 18.9077 5.66471 0.0249011 -0.101901 0.46 
4 19.3306 5.41175 -0.0238597 -0.0302217 0.46 
6 19.7731 5.64013 -0.00332359 -0.0288582 0.46 
65 16.7619 5.83555 0.00460358 -0.170429 0.46 
122 17.2771 5.91997 0.0485122 -0.078541 0.46 
115 17.7311 6.08863 -0.0336013 -0.0645885 0.46 
22 18.5404 5.95983 -0.0478776 -0.0187967 0.46 
23 18.9665 6.15567 -0.101779 0.0334275 0.46 
5 19.3563 5.89498 -0.0431142 0.0275131 0.46 
8 19.7775 6.10587 -0.0073961 0.0101233 0.46 
87 16.3295 6.25271 0.00755278 -0.211098 0.46 
161 16.876 6.36087 0.0277322 0.0277731 0.46 
55 17.3382 6.44788 -0.0476507 -0.00969244 0.46 
69 17.78 6.56669 -0.114919 0.0740074 0.46 
19 18.162 6.26 -0.111572 0.0701383 0.46 
21 18.5846 6.43079 -0.125889 0.0537144 0.46 
24 18.9987 6.61267 -0.131039 0.0357591 0.46 
7 19.3807 6.35291 -0.074714 0.0271677 0.46 
15 19.7882 6.55875 -0.0448687 0.0192318 0.46 
137 15.8695 6.6818 0.112018 -0.0582067 0.46 
123 16.4715 6.76762 -0.243978 0.163425 0.46 
47 16.9501 6.85477 -0.0821231 -0.0100596 0.46 
96 17.4019 6.914 -0.0798359 0.0391496 0.46 
17 18.2087 6.71711 -0.150318 0.0642039 0.46 
46 17.8406 7.01924 -0.12012 0.05941 0.46 
18 18.6266 6.88457 -0.169763 0.0482935 0.46 
38 19.0344 7.06312 -0.146627 0.02637 0.46 
9 19.4056 6.80431 -0.0964164 0.0223563 0.46 
12 19.8039 7.00556 -0.0550336 0.0210232 0.46 
42 15.7598 7.48002 0.4556 -1.03201 0.46 
57 16.0997 7.15208 -0.0254232 -0.401314 0.46 
30 16.5848 7.24758 -0.131901 -0.00450719 0.46 
79 17.0386 7.30904 -0.136302 -0.0172639 0.46 
48 17.4843 7.36208 -0.103305 0.0261365 0.46 
130 17.9153 7.46331 -0.158382 0.0506957 0.46 
32 18.2646 7.16721 -0.173954 0.0501706 0.46 
20 18.6758 7.33323 -0.180557 0.0340713 0.46 
25 19.0741 7.51069 -0.148734 0.0256997 0.46 
10 19.4319 7.25092 -0.10283 0.0213721 0.46 
13 19.8196 7.4476 -0.0569317 0.0219463 0.46 
85 15.4609 7.85653 -0.167405 0.112039 0.46 
70 16.2376 7.62857 0.142239 -0.135823 0.46 
92 16.6852 7.70932 0.172477 -0.0699479 0.46 
110 17.1275 7.75501 0.132347 -0.0138305 0.46 
81 17.5635 7.80561 0.0489917 0.0104742 0.46 
99 17.9903 7.90193 -0.0868517 0.0450163 0.46 
31 18.3294 7.6128 -0.172502 0.0379796 0.46 
16 18.7322 7.78013 -0.172011 0.0369038 0.46 
35 19.1166 7.96019 -0.131853 0.0345813 0.46 
11 19.4591 7.69515 -0.0994605 0.0277936 0.46 
28 19.8354 7.88519 -0.059488 0.0243368 0.46 
108 15.2514 8.39104 0.0895412 0.64548 0.46 
34 15.9655 8.01064 0.243302 0.300651 0.46 
88 16.412 8.09778 -0.0951467 0.017041 0.46 
187 16.8599 8.13974 -0.212129 -0.0333585 0.46 
59 17.2911 8.18027 0.00299555 -0.0108401 0.46 
142 17.6966 8.23623 0.00810162 0.023776 0.46 
53 18.087 8.33857 -0.127796 0.0433342 0.46 
77 18.4004 8.05211 -0.142431 0.0608584 0.46 
73 18.7902 8.23028 -0.131188 0.0575443 0.46 
120 19.1686 8.41275 -0.0957911 0.0371773 0.46 
26 19.4889 8.13855 -0.0881129 0.0391508 0.46 
14 19.8538 8.31782 -0.077465 0.0324992 0.46 
29 15.4593 8.8466 -0.659058 -0.386652 0.46 
129 15.7732 8.44573 -0.249179 -0.167957 0.46 
100 16.2367 8.51846 0.00245023 -0.0387665 0.46 
71 16.6949 8.55804 -0.0711393 -0.0173191 0.46 
68 17.1505 8.60143 0.137411 0.010428 0.46 
140 17.6032 8.66036 0.0977251 0.0309477 0.46 
56 18.0681 8.75906 -0.0238278 0.0730826 0.46 
113 18.4675 8.50014 -0.107529 0.0763885 0.46 
86 18.8652 8.67876 -0.0653443 0.0389669 0.46 
58 19.261 8.88721 -0.0642794 0.0972772 0.46 
37 19.5326 8.58364 -0.0832549 0.0741204 0.46 
39 19.8929 8.74779 -0.150689 0.0195112 0.46 
89 14.7398 9.20934 0.218756 -0.983033 0.46 
33 15.2192 9.2876 0.671549 0.392517 0.46 
114 15.6947 9.29249 0.787692 -0.207497 0.46 
75 15.9649 8.90081 0.0273426 -0.134189 0.46 
52 16.1488 9.32333 0.125269 -0.025305 0.46 
186 16.4253 8.93617 -0.0700058 -0.0113522 0.46 
210 16.8794 8.97263 -0.0383893 0.0129439 0.46 
131 17.3235 9.0144 0.0976683 0.0823188 0.46 
160 17.762 9.07283 0.0242186 0.0592974 0.46 
64 18.1981 9.17253 -0.0505482 0.0905385 0.46 
95 18.5139 8.91468 -4.48541e-05 0.0896879 0.46 
76 18.6369 9.32824 0.0230417 0.108687 0.46 
150 18.9393 9.0934 -0.0420441 0.0492683 0.46 
61 19.6483 9.02755 -0.193767 0.121599 0.46 
97 15.4129 9.72724 -0.0991039 -0.0394612 0.46 
98 15.8852 9.72828 -0.0470705 0.000892525 0.46 
41 16.3407 9.73799 -0.0371919 0.0809542 0.46 
36 16.6043 9.35143 -0.0687514 0.118186 0.46 
169 16.7883 9.76435 -0.0646367 0.108744 0.46 
176 17.0512 9.38534 -0.0299897 0.102249 0.46 
102 17.4846 9.42573 0.035962 0.0884119 0.46 
78 17.911 9.48081 -0.0371501 0.0743586 0.46 
156 18.3426 9.56948 -0.0685801 0.0926822 0.46 
119 18.8738 9.70369 0.0358147 0.0329366 0.46 
45 19.5096 9.38965 -0.0360521 0.105951 0.46 
72 19.1456 9.44137 -0.0240415 -0.0443807 0.46 
27 19.8854 9.37171 -0.299005 0.135274 0.46 
134 14.9531 9.90229 0.0268576 0.999728 0.46 
166 15.6022 10.1548 -0.330138 -0.0798003 0.46 
183 16.0785 10.1435 -0.0945834 0.0875348 0.46 
121 16.5342 10.1498 -0.0581605 0.180294 0.46 
132 16.979 10.1761 -0.0355824 0.123193 0.46 
147 17.2258 9.79667 -0.0169575 0.106512 0.46 
193 17.4141 10.2046 -0.0223901 0.0821097 0.46 
118 17.6525 9.83295 -0.018164 0.0797733 0.46 
60 18.0776 9.86924 -0.0597034 0.0706224 0.46 
43 18.2719 10.2179 -0.0650063 0.0579958 0.46 
80 18.5333 9.92299 -0.0387835 0.0721966 0.46 
158 18.894 10.1269 0.0991475 -0.0204132 0.46 
44 19.3952 9.7856 0.219102 -0.0609822 0.46 
177 19.3178 10.1703 0.0527845 0.157345 0.46 
141 19.9596 9.82067 0.949262 0.05761 0.46 
152 19.724 10.1904 0.470875 -0.255211 0.46 
190 14.6519 10.341 0.345371 1.48045 0.46 
163 15.2083 10.4811 0.140006 0.624289 0.46 
105 15.8231 10.5618 -0.212713 -0.163926 0.46 
159 16.2843 10.5517 -0.163031 0.0583263 0.46 
84 16.7375 10.5591 -0.0776226 0.115056 0.46 
133 17.1839 10.5823 -0.00846778 0.0712143 0.46 
153 17.6279 10.5991 -0.0247174 0.0367469 0.46 
91 17.8429 10.2268 -0.048504 0.0500338 0.46 
93 18.079 10.587 -0.0315963 0.000927384 0.46 
170 18.5868 10.4358 0.0821052 -0.122987 0.46 
165 19.0347 10.5022 0.0190339 -0.0505114 0.46 
171 19.4247 10.6281 0.075866 -0.188451 0.46 
167 19.8467 10.5463 0.102737 -0.15695 0.46 
128 21.0918 10.2244 6.1983 0.558035 0.46 
172 15.474 10.9006 0.45706 0.401518 0.46 
82 16.0395 10.9717 -0.107258 -0.160773 0.46 
164 16.4953 10.9576 -0.04569 -0.0210883 0.46 
51 16.944 10.9642 0.0143512 0.045429 0.46 
155 17.3918 10.9799 0.0309275 0.0165772 0.46 
138 17.843 10.9735 0.0198784 -0.0252758 0.46 
145 18.2879 10.9298 0.0450769 -0.0852853 0.46 
175 18.6923 10.7905 0.0414544 -0.127038 0.46 
180 19.0712 10.9253 0.0434026 -0.17764 0.46 
184 19.534 11.044 -0.249664 -0.0890001 0.46 
185 19.8879 10.9381 -0.126278 -0.0682888 0.46 
90 15.072 11.2292 0.169272 -0.382334 0.46 
111 15.6847 11.3279 0.0644532 0.492449 0.46 
112 16.1374 11.4218 -0.0516274 -0.154858 0.46 
63 16.5856 11.4017 -0.0243806 -0.0528372 0.46 
136 17.026 11.4015 -0.0430167 0.00744926 0.46 
125 17.4555 11.4106 -0.0826626 0.00279291 0.46 
194 17.8674 11.3979 -0.117977 -0.0396174 0.46 
109 18.2696 11.3347 -0.0961147 -0.0713458 0.46 
54 18.6708 11.1902 -0.0592555 -0.116414 0.46 
50 18.9053 11.5057 -0.137515 -0.0180796 0.46 
154 19.2326 11.279 -0.175812 0.0186894 0.46 
173 19.8435 11.3633 -0.0719017 -0.0511677 0.46 
195 15.3698 11.7552 -0.0842542 0.388609 0.46 
49 15.8765 11.8366 -0.00514423 0.0138987 0.46 
116 16.3436 11.8515 0.0144165 -0.16314 0.46 
103 16.7943 11.8142 -0.0125229 -0.0731216 0.46 
67 17.2393 11.8066 -0.0463039 -0.00648203 0.46 
151 17.6778 11.8077 -0.0854311 -0.0275314 0.46 
94 18.1052 11.7575 -0.111839 -0.0548197 0.46 
127 18.5179 11.6508 -0.117522 -0.0425883 0.46 
101 18.7986 11.9484 -0.127182 -0.00678283 0.46 
181 19.1806 11.7843 -0.123143 0.0267714 0.46 
201 19.5123 11.5662 -0.1256 0.0375062 0.46 
209 19.8487 11.8138 -0.0519266 -0.00834928 0.46 
106 15.5852 12.2968 -0.154407 -0.032288 0.46 
117 16.141 12.3006 0.0876317 -0.233795 0.46 
124 16.6173 12.2631 -0.0978747 -0.18507 0.46 
107 17.0705 12.2276 -0.0847691 -0.0506699 0.46 
144 17.5188 12.2259 -0.104177 -0.055486 0.46 
178 17.9607 12.1798 -0.121399 -0.0724067 0.46 
149 18.3895 12.0818 -0.128092 -0.0404424 0.46 
157 18.7084 12.3811 -0.121968 -0.00671591 0.46 
198 19.1153 12.2224 -0.107486 0.0168986 0.46 
200 19.4983 12.0296 -0.0857822 0.0207047 0.46 
192 19.8376 12.2671 -0.0509824 0.00615623 0.46 
174 15.9191 12.8006 -0.215464 -0.0151283 0.46 
162 16.463 12.7285 0.125795 -0.0271942 0.46 
66 16.9438 12.6685 -0.136633 -0.0727311 0.46 
74 17.4 12.6606 -0.134373 -0.0747223 0.46 
146 17.8488 12.6126 -0.130195 -0.0810936 0.46 
168 18.2847 12.5128 -0.131367 -0.0462207 0.46 
188 18.6326 12.8163 -0.117249 -0.00779191 0.46 
189 19.0523 12.6576 -0.100273 0.0128233 0.46 
191 19.456 12.4737 -0.0781685 0.016972 0.46 
224 19.8146 12.7121 -0.0458465 0.0108041 0.46 
40 16.2985 13.2276 -0.163008 0.00889877 0.46 
143 16.8256 13.1359 0.0872025 -0.0489793 0.46 
126 17.3035 13.1055 -0.116539 -0.0932711 0.46 
139 17.7589 13.0543 -0.113261 -0.0955827 0.46 
199 18.202 12.9525 -0.121094 -0.0501771 0.46 
205 18.5753 13.2599 -0.0955377 -0.00693352 0.46 
207 19.0001 13.0965 -0.0871311 0.0123837 0.46 
208 19.4147 12.9142 -0.0704205 0.0181008 0.46 
225 19.7928 13.1539 -0.0368803 0.0122446 0.46 
135 16.6784 13.6409 -0.232983 -0.0126697 0.46 
196 17.202 13.5633 0.0285995 -0.0237905 0.46 
182 17.6871 13.5043 -0.105033 -0.12146 0.46 
204 18.1401 13.4012 -0.105624 -0.0472176 0.46 
203 18.5364 13.712 -0.0669051 0.00145317 0.46 
206 18.9645 13.5437 -0.0558337 0.0259599 0.46 
223 19.3834 13.3585 -0.0487149 0.0248887 0.46 
222 19.779 13.5986 -0.0154978 0.0181255 0.46 
62 17.0749 14.0695 -0.0496581 0.0635076 0.46 
213 17.5961 13.9678 -0.0462241 -0.0898002 0.46 
202 18.0802 13.8562 -0.104362 -0.0401368 0.46 
211 18.4801 14.1736 -0.0405151 0.0431858 0.46 
217 18.937 13.9985 -0.0326027 0.0283556 0.46 
221 19.3667 13.8115 -0.0239841 0.0279753 0.46 
219 19.7751 14.0523 -0.00289497 0.0229062 0.46 
179 17.5005 14.4895 -0.025196 -0.0407696 0.46 
197 18.0208 14.36 -0.077481 -0.045564 0.46 
216 18.8676 14.4742 -0.0163514 0.0412175 0.46 
220 19.3347 14.279 -0.0319133 0.012233 0.46 
218 19.7532 14.5206 -0.0739228 0.0211925 0.46 
212 18.43 14.7572 -0.0184184 -0.00513621 0.46 
214 19.2212 14.816 -0.0407194 -0.0233036 0.46 
215 19.7037 15.0336 -0.00774741 -0.000838282 0.46 