ITEM: TIMESTEP
300000
ITEM: NUMBER OF ATOMS
3689
ITEM: BOX BOUNDS pp ff pp
0.0000000000000000e+00 2.8000000000000000e+01
-5.0000000000000000e+00 2.7000000000000000e+01
-1.0000000000000000e+00 1.0000000000000000e+00
ITEM: ATOMS id x y vx vy diameter 
1 17.3989 3.20343 0.619198 -0.00756719 0.46 
2 8.76814 12.3063 0.794621 0.0120458 0.46 
3 23.2563 14.6714 0.780124 0.0119774 0.46 
4 21.4723 8.72287 0.787307 0.00234372 0.46 
5 1.21637 0.55413 0.195084 0.0271963 0.46 
6 9.18779 15.3133 0.790987 0.0135598 0.46 
7 20.9569 1.35255 0.37171 0.0175795 0.46 
8 14.0867 12.4263 0.786045 -0.0151232 0.46 
9 19.3497 11.7837 0.788849 -0.0158 0.46 
10 13.7002 9.48004 0.782598 2.87756e-05 0.46 
11 17.7625 17.09 0.742477 -0.0124682 0.46 
12 23.0491 16.3163 0.763687 0.00982905 0.46 
13 10.837 16.9692 0.766239 0.0287149 0.46 
14 2.80033 5.24359 0.734593 0.0329693 0.46 
15 13.7839 16.4078 0.76066 -0.00422132 0.46 
16 23.9852 14.3673 0.774457 0.00626641 0.46 
17 2.85532 9.76465 0.793646 0.0355028 0.46 
18 6.1701 5.52552 0.725782 0.0156716 0.46 
19 27.7968 3.21177 0.618573 0.00577725 0.46 
20 9.76699 19.9562 0.511261 -0.0142446 0.46 
21 20.8129 11.0411 0.788029 -0.00998366 0.46 
22 14.8458 21.458 0.232888 0.0291799 0.46 
23 21.4717 2.01473 0.500181 0.00382086 0.46 
24 25.4407 11.2699 0.791906 0.00474066 0.46 
25 19.896 20.3949 0.416731 0.00794072 0.46 
26 24.2808 20.2193 0.439535 0.0293924 0.46 
27 13.6738 17.178 0.783335 -0.0217727 0.46 
28 9.29645 0.532245 0.159947 -0.0108902 0.46 
29 18.8723 14.5994 0.769615 -0.0140662 0.46 
30 23.1145 21.8352 0.0808493 0.0150882 0.46 
31 0.651599 6.90099 0.766088 0.0193785 0.46 
32 9.53699 13.292 0.792546 0.0124802 0.46 
33 1.43613 18.3576 0.681683 0.0205991 0.46 
34 7.14432 12.2709 0.795309 0.0253657 0.46 
35 26.6457 3.7844 0.709885 -0.00725517 0.46 
36 7.15217 17.7874 0.731471 -0.00258062 0.46 
37 10.8177 11.2229 0.789095 -0.000576095 0.46 
38 16.5675 12.0238 0.789008 -0.0109487 0.46 
39 6.89045 18.647 0.666106 -0.0165102 0.46 
40 27.9082 16.0823 0.765755 0.0358997 0.46 
41 24.6091 6.32665 0.763249 -0.000554404 0.46 
42 17.6551 0.569996 0.177061 -0.0448059 0.46 
43 19.4985 5.23454 0.729569 -0.0225576 0.46 
44 24.7735 19.0111 0.667736 0.012344 0.46 
45 26.9405 14.8991 0.787148 0.0129499 0.46 
46 6.4797 11.3331 0.793329 0.0287604 0.46 
47 4.97347 19.2447 0.576723 0.0235053 0.46 
48 22.3741 12.7191 0.78879 -0.00296505 0.46 
49 22.842 9.94694 0.794311 -0.000728204 0.46 
50 9.34777 5.62812 0.744543 0.023633 0.46 
51 20.3775 21.0422 0.272616 0.0114782 0.46 
52 27.9312 6.58764 0.760092 0.00999208 0.46 
53 25.9063 14.4321 0.792389 -0.0202029 0.46 
54 15.8147 5.7373 0.744907 0.0139709 0.46 
55 1.99171 4.13697 0.717917 0.0369404 0.46 
56 20.7172 9.48472 0.797853 -0.00960387 0.46 
57 22.4099 10.0151 0.794694 -0.00181999 0.46 
58 12.3588 2.49184 0.523333 -0.0145784 0.46 
59 24.5504 8.00159 0.788824 0.000990957 0.46 
60 23.544 17.4042 0.700375 0.0282529 0.46 
61 5.63723 10.0045 0.79333 0.0284638 0.46 
62 20.6307 14.5008 0.783549 -0.0189024 0.46 
63 3.57116 20.2044 0.420039 0.0133124 0.46 
64 19.5797 10.095 0.7946 -0.0272901 0.46 
65 8.20216 18.197 0.709189 0.0186923 0.46 
66 21.6449 20.9548 0.313173 -0.0141195 0.46 
67 3.28258 18.1933 0.669689 0.04507 0.46 
68 22.6812 21.8466 0.102975 -0.00353969 0.46 
69 17.8374 6.11454 0.760726 -0.0134361 0.46 
70 1.73749 2.18229 0.516306 0.0293003 0.46 
71 3.50625 19.3732 0.545323 0.0382319 0.46 
72 8.89356 19.1935 0.579978 0.0182657 0.46 
73 15.9633 16.2364 0.772553 -0.0211099 0.46 
74 14.3598 19.9071 0.519596 0.00780794 0.46 
75 23.5822 1.29701 0.349339 0.0363794 0.46 
76 8.11884 14.7131 0.789675 0.019876 0.46 
77 20.133 19.6588 0.581469 0.00444289 0.46 
78 20.7825 11.7876 0.788568 -0.00966497 0.46 
79 17.8292 21.4835 0.133492 -0.0251263 0.46 
80 6.80424 7.31261 0.766219 0.0165714 0.46 
81 20.2377 9.58105 0.799421 -0.0157576 0.46 
82 17.2282 7.86958 0.782802 -0.0057562 0.46 
83 19.1152 3.60199 0.632088 -0.037412 0.46 
84 20.3023 0.163551 0.0836099 0.00622682 0.46 
85 14.8496 15.9715 0.766923 -0.0229164 0.46 
86 6.03062 15.087 0.773645 0.0191433 0.46 
87 23.5629 18.1279 0.683736 0.0319025 0.46 
88 10.1238 2.68952 0.548724 0.0192852 0.46 
89 15.7885 14.2094 0.776452 -0.0181119 0.46 
90 19.3764 1.82254 0.46247 -0.0159197 0.46 
91 7.7424 20.9846 0.41572 -0.00122352 0.46 
92 1.93927 15.3945 0.766401 0.0313141 0.46 
93 13.3774 17.949 0.717742 -0.0206742 0.46 
94 27.8052 4.26668 0.715344 0.0123266 0.46 
3696 13.2717 2.79784 0.576804 -0.0006434 0.46 
96 11.4835 2.96491 0.587392 -0.0108303 0.46 
97 8.95194 4.59445 0.714145 0.00628438 0.46 
98 10.1714 21.4605 0.19034 0.031734 0.46 
99 22.5212 3.00478 0.591097 0.0255275 0.46 
100 11.8265 15.6687 0.782501 0.028711 0.46 
101 12.6327 16.8169 0.761525 0.024143 0.46 
102 0.379512 1.33999 0.352397 0.0147157 0.46 
103 0.921104 7.27465 0.763537 0.0227255 0.46 
104 24.857 16.2489 0.78837 0.0133431 0.46 
105 10.7024 13.0331 0.790825 0.00982653 0.46 
106 9.1323 3.63534 0.656854 0.00922646 0.46 
107 3.83333 18.5667 0.647471 0.0422501 0.46 
108 8.31963 16.9981 0.749926 0.00842429 0.46 
109 27.3721 11.469 0.793577 0.00490824 0.46 
110 11.8501 11.6473 0.786246 0.000484927 0.46 
111 2.60299 8.07836 0.787617 0.0422363 0.46 
112 8.23806 10.6228 0.791206 0.0149025 0.46 
113 19.3153 1.3893 0.409789 -0.00681075 0.46 
114 2.11527 14.973 0.772372 0.0317264 0.46 
115 7.65367 16.6419 0.780938 -0.00293419 0.46 
116 21.8642 10.5913 0.791975 -0.000978817 0.46 
117 4.07784 10.0537 0.796153 0.028146 0.46 
118 13.6221 9.03089 0.776176 0.00347024 0.46 
119 17.8244 3.54041 0.653692 -0.020904 0.46 
120 4.88846 12.2981 0.790437 0.0235515 0.46 
121 26.4199 0.156864 0.106106 -0.000878284 0.46 
122 12.8356 12.1588 0.783201 -0.00555208 0.46 
123 17.0547 20.6465 0.394755 -0.0135441 0.46 
124 16.7603 15.8196 0.77117 -0.0201768 0.46 
125 25.4793 0.170835 0.0842161 -0.00231759 0.46 
126 13.6076 16.0415 0.758047 0.00289336 0.46 
127 8.66403 17.2118 0.745913 0.00219268 0.46 
128 13.2587 6.14176 0.755504 0.00309886 0.46 
129 7.51888 0.150988 0.0720599 0.0270353 0.46 
130 18.7947 2.78171 0.543152 -0.0501792 0.46 
131 14.642 16.3439 0.765142 -0.0210664 0.46 
132 23.4194 13.1882 0.790075 -0.00109769 0.46 
133 25.0227 11.9079 0.798645 0.00413031 0.46 
134 1.41484 8.37777 0.791965 0.0222646 0.46 
135 11.5994 16.0913 0.788808 0.0396534 0.46 
136 25.851 17.85 0.711358 0.0160129 0.46 
137 13.6809 6.76968 0.773682 0.000634033 0.46 
138 26.2023 11.2657 0.790033 0.00602645 0.46 
139 14.9505 1.01635 0.324584 0.0185403 0.46 
140 26.4833 15.9698 0.778895 0.0105968 0.46 
141 24.4814 10.0311 0.789615 0.00129122 0.46 
142 10.2358 9.93929 0.787176 0.00412215 0.46 
143 24.619 18.6151 0.665836 0.0125042 0.46 
144 9.92442 15.5639 0.782085 0.0207674 0.46 
145 3.98211 21.8374 0.0616151 -0.00800735 0.46 
146 18.5306 17.9795 0.657507 -0.00430963 0.46 
147 6.20673 10.5163 0.794869 0.0255393 0.46 
148 14.9759 14.7479 0.771561 -0.016236 0.46 
149 17.0254 2.8913 0.601932 0.00352279 0.46 
150 27.6884 7.43491 0.766312 0.0189854 0.46 
151 5.58561 3.02501 0.643686 -0.00616096 0.46 
152 21.1975 7.90451 0.75391 -0.00501652 0.46 
153 21.1368 6.175 0.7616 -0.00516319 0.46 
154 3.5047 17.7906 0.710593 0.0450612 0.46 
155 27.2303 16.771 0.753041 0.0369502 0.46 
156 6.19732 6.24696 0.744515 0.0242143 0.46 
157 23.2119 4.9387 0.727809 -0.00743083 0.46 
158 17.3981 0.195228 0.0850083 -0.0117889 0.46 
159 12.5516 9.65435 0.7846 -0.00681338 0.46 
160 14.4919 8.18906 0.773766 0.00341549 0.46 
161 9.2795 21.4587 0.212088 0.00316006 0.46 
162 25.7486 10.6344 0.791868 0.00547053 0.46 
163 19.7066 5.72413 0.747382 -0.0263764 0.46 
164 16.9925 10.5729 0.799478 -0.00943643 0.46 
165 13.3419 15.3054 0.782447 -0.00135839 0.46 
166 21.3436 5.41478 0.712827 -0.0147187 0.46 
167 10.0644 14.4452 0.796815 0.0148374 0.46 
168 2.0348 4.9263 0.728505 0.0578651 0.46 
169 8.4107 3.8572 0.657011 0.0300668 0.46 
170 14.5495 1.50813 0.368716 -0.0121048 0.46 
171 15.2931 20.2943 0.409297 0.0251336 0.46 
172 27.959 20.6098 0.40643 0.00961524 0.46 
173 9.68028 16.7772 0.772631 0.00833715 0.46 
174 24.2467 9.26838 0.790184 0.00298772 0.46 
175 6.44352 1.7767 0.43267 0.005456 0.46 
176 22.6014 10.7797 0.794884 0.000475389 0.46 
177 5.81327 16.2387 0.758045 0.0278418 0.46 
178 27.7724 8.3259 0.792603 0.0179443 0.46 
179 20.6015 5.86853 0.748904 -0.0334539 0.46 
180 26.5923 11.4745 0.792081 0.00514767 0.46 
181 3.06551 2.81159 0.597327 0.0148313 0.46 
182 6.01553 9.72153 0.781691 0.020913 0.46 
183 15.2326 12.3946 0.788895 -0.0141405 0.46 
184 10.9107 18.7866 0.637631 0.0334791 0.46 
185 22.3884 20.2548 0.443234 -0.0333128 0.46 
186 5.29874 12.2582 0.789045 0.0240376 0.46 
187 4.5296 5.23894 0.72896 0.0157566 0.46 
188 6.84602 10.1092 0.791587 0.0250568 0.46 
189 23.2663 5.34549 0.756849 -0.00579654 0.46 
190 8.93062 14.7866 0.792694 0.00771663 0.46 
191 1.29416 15.8895 0.760287 0.0281082 0.46 
192 22.9738 1.76078 0.42771 -0.022094 0.46 
193 26.4596 17.088 0.741817 0.0215946 0.46 
194 20.8263 5.56475 0.742391 -0.0365081 0.46 
195 2.83608 4.22946 0.69291 0.0272795 0.46 
196 22.4238 17.9908 0.660993 0.00442784 0.46 
197 27.6951 13.0191 0.796532 0.00760919 0.46 
198 3.73591 6.07756 0.74567 0.0223897 0.46 
199 12.0239 18.9499 0.63925 0.0144109 0.46 
200 27.4581 18.0089 0.689849 0.0620139 0.46 
201 9.53237 0.866669 0.289417 -0.06711 0.46 
202 5.98531 1.79117 0.43416 0.0102841 0.46 
203 19.0375 5.18122 0.731911 -0.0275951 0.46 
204 24.7359 15.1816 0.771178 0.00297836 0.46 
205 6.8836 6.02005 0.748663 0.037371 0.46 
206 1.75838 4.46061 0.728939 0.0492092 0.46 
207 7.60144 10.3655 0.789159 0.0246582 0.46 
208 23.2725 9.87717 0.793312 -4.82278e-05 0.46 
209 20.0339 0.57459 0.222499 -0.00686315 0.46 
210 7.04837 18.2457 0.682365 -0.0222257 0.46 
211 2.00952 11.8005 0.796695 0.0271992 0.46 
212 16.5031 21.4392 0.175112 -0.0256865 0.46 
213 11.6352 19.3061 0.586206 0.00639823 0.46 
214 7.50704 21.8253 0.0932387 0.0163528 0.46 
215 25.9097 19.8408 0.456997 -0.000835043 0.46 
216 18.3055 11.6636 0.792537 -0.0237166 0.46 
217 16.4998 20.2174 0.424256 0.00753714 0.46 
218 10.2932 0.5219 0.182915 -0.0135908 0.46 
219 15.6971 2.24613 0.502611 0.0416932 0.46 
220 23.4894 12.4559 0.794169 0.000339451 0.46 
221 8.43223 14.9985 0.788833 0.0219094 0.46 
222 22.0316 0.166897 0.102624 -0.0144981 0.46 
223 13.8838 7.66661 0.78044 -0.00669528 0.46 
224 18.3555 19.9301 0.554444 -0.0510593 0.46 
225 5.72147 13.2478 0.784644 0.0207901 0.46 
226 22.3266 15.3595 0.778952 -0.00511758 0.46 
227 6.99387 2.57203 0.581933 0.00626552 0.46 
228 8.66648 20.597 0.39918 -0.00882976 0.46 
229 4.87125 18.3239 0.660988 0.00812611 0.46 
230 10.1403 16.6857 0.769558 0.0145686 0.46 
231 4.01794 3.71947 0.669606 0.0128591 0.46 
232 9.81066 6.36657 0.754428 0.00403127 0.46 
233 13.8336 15.334 0.770458 -0.0173082 0.46 
234 10.2854 13.6585 0.794854 0.0125589 0.46 
235 8.78449 13.2521 0.792786 0.0231969 0.46 
236 1.51893 3.23926 0.621242 0.0443378 0.46 
237 1.29948 0.961697 0.320265 0.0207054 0.46 
238 9.57078 7.49496 0.773485 0.00643478 0.46 
239 21.9294 2.47653 0.538413 0.0355142 0.46 
240 10.3607 13.2724 0.794127 0.0114515 0.46 
241 18.6069 16.9363 0.726307 -0.00460063 0.46 
242 8.21516 14.2897 0.789718 0.0192304 0.46 
243 7.01962 10.7251 0.794383 0.0290918 0.46 
244 15.2577 11.178 0.78945 -0.0115138 0.46 
245 11.2315 6.63875 0.767086 -0.011775 0.46 
246 24.9955 20.6092 0.366323 -0.00329239 0.46 
247 6.74486 13.655 0.802037 0.0133596 0.46 
248 19.8158 15.2768 0.759255 -0.00559729 0.46 
249 7.71802 5.49076 0.724255 0.0153919 0.46 
250 18.8892 5.56525 0.749512 -0.0249601 0.46 
251 12.3519 20.3078 0.44835 0.00687726 0.46 
252 18.2493 6.30114 0.761523 -0.0164497 0.46 
253 2.57476 2.76065 0.584793 0.0301348 0.46 
254 14.8545 9.43567 0.784831 -0.00485148 0.46 
255 7.28023 2.22557 0.516518 0.0225521 0.46 
256 3.94076 6.50807 0.752943 0.0233901 0.46 
257 4.57698 7.06681 0.75937 0.0276296 0.46 
258 11.5125 10.908 0.787702 -0.00185488 0.46 
259 6.19884 21.838 0.0799954 -0.00716236 0.46 
260 9.04505 8.15247 0.780008 0.0145244 0.46 
261 21.84 3.53594 0.651786 0.0249563 0.46 
262 27.5791 10.3186 0.790334 0.0069151 0.46 
263 20.3881 9.2208 0.80275 -0.0149086 0.46 
264 12.7499 7.53361 0.771694 -0.00641219 0.46 
265 8.25304 19.8413 0.533936 -0.0035254 0.46 
266 17.3197 17.7287 0.703703 -0.00752162 0.46 
267 22.0585 0.573444 0.22318 -0.0198182 0.46 
268 4.23207 18.5132 0.639058 0.0315685 0.46 
269 19.5801 13.0492 0.790861 -0.0121888 0.46 
270 18.5456 10.9105 0.795003 -0.0223716 0.46 
271 6.84682 13.1123 0.789917 0.0309995 0.46 
272 19.9432 8.07 0.797148 -0.0160831 0.46 
273 14.22 16.3602 0.760293 -0.0155712 0.46 
274 24.044 15.4751 0.773507 0.0272981 0.46 
275 20.5476 1.37306 0.372499 -0.00389137 0.46 
276 24.4239 1.71851 0.422722 -0.0231296 0.46 
277 5.60539 18.5973 0.652645 0.0492456 0.46 
278 16.1493 14.3737 0.777561 -0.0204389 0.46 
279 20.337 10.2739 0.790495 -0.011812 0.46 
280 6.02346 9.00146 0.786619 0.0175038 0.46 
281 14.1639 1.41073 0.365745 -0.042723 0.46 
282 6.91312 15.8009 0.763648 0.0119496 0.46 
283 18.6862 21.0457 0.225508 -0.0410278 0.46 
284 4.80579 19.9671 0.509907 0.0133002 0.46 
285 15.7091 17.9003 0.719979 -0.00518606 0.46 
286 25.3755 10.8734 0.790349 0.00438443 0.46 
287 8.91482 11.5393 0.79277 0.0174551 0.46 
288 19.7388 6.46759 0.762783 -0.0256568 0.46 
289 12.8581 1.27401 0.327273 0.0011672 0.46 
290 4.96336 5.26796 0.729967 0.0127948 0.46 
291 16.2392 5.00606 0.702031 0.0209936 0.46 
292 0.170865 6.9804 0.765189 0.0147619 0.46 
293 7.49464 13.3368 0.81236 0.01387 0.46 
294 5.43713 8.44414 0.784726 0.0177811 0.46 
295 1.11704 3.22496 0.60635 0.00967989 0.46 
296 21.7487 15.7892 0.755985 -0.000807186 0.46 
297 14.34 18.2532 0.676946 0.00770834 0.46 
298 13.5463 0.17353 0.0877761 -0.0199817 0.46 
299 12.8069 14.2112 0.779509 -0.00966964 0.46 
300 17.6388 8.06997 0.784595 -0.00995165 0.46 
301 5.8639 7.36368 0.759544 0.011468 0.46 
302 25.478 5.71182 0.753497 -0.00614941 0.46 
303 18.2903 7.17255 0.769797 -0.0177535 0.46 
304 22.8495 0.546339 0.20705 0.0134803 0.46 
305 6.19704 11.6566 0.795369 0.0308322 0.46 
306 1.45429 6.77886 0.768164 0.0289335 0.46 
307 26.1364 14.0192 0.803584 -0.0103644 0.46 
308 7.79569 8.34655 0.78209 0.0198639 0.46 
309 15.7234 14.635 0.774629 -0.019829 0.46 
310 17.635 11.9783 0.795468 -0.014545 0.46 
311 6.45861 7.07611 0.758079 0.0275495 0.46 
312 10.4636 18.4338 0.697998 0.0123871 0.46 
313 8.20101 8.26548 0.781119 0.0181629 0.46 
314 21.1679 4.50873 0.704905 -0.0155902 0.46 
315 18.6711 9.31143 0.797728 -0.023671 0.46 
316 27.0808 3.79857 0.712096 -0.00342702 0.46 
317 21.6465 13.0748 0.789798 -0.00894891 0.46 
318 7.87512 14.028 0.790136 0.0191239 0.46 
319 21.3621 1.25167 0.351771 -1.22927e-05 0.46 
320 8.92703 17.4902 0.722084 0.0329637 0.46 
321 16.5304 2.1623 0.470685 0.0227311 0.46 
322 18.2983 12.8098 0.791248 -0.0195624 0.46 
323 2.65269 0.152371 0.0907614 -0.00123628 0.46 
324 11.4557 21.4434 0.116021 -0.0621613 0.46 
325 2.16963 15.7423 0.763061 0.035407 0.46 
326 13.3194 18.684 0.662516 -0.00975298 0.46 
327 15.0411 13.9222 0.776696 -0.0158875 0.46 
328 9.37541 14.9416 0.79232 0.0138194 0.46 
329 19.9301 9.185 0.80565 -0.0151139 0.46 
330 16.3332 21.0532 0.295394 -0.00941013 0.46 
331 1.78746 18.5566 0.664216 0.040486 0.46 
332 4.76064 11.8835 0.793475 0.0215598 0.46 
333 6.3057 20.252 0.511692 0.0316487 0.46 
334 16.6245 20.6422 0.376183 -0.00347105 0.46 
335 24.3778 5.56983 0.749383 0.00186692 0.46 
336 24.0802 4.03191 0.697682 9.80664e-05 0.46 
337 12.2174 13.6368 0.775507 0.00635715 0.46 
338 13.8994 8.74677 0.770934 -0.0023048 0.46 
339 6.39601 3.01638 0.62986 0.022522 0.46 
340 13.821 14.0122 0.774896 -0.0173675 0.46 
341 22.4488 0.576722 0.21844 0.0104345 0.46 
342 18.7962 8.24219 0.789739 -0.0274452 0.46 
343 26.2921 1.37409 0.360913 0.021623 0.46 
344 3.24567 9.89538 0.795552 0.030627 0.46 
345 16.9326 19.3888 0.564819 0.0145746 0.46 
346 27.1105 1.31189 0.362383 0.0195824 0.46 
347 8.5481 12.9455 0.800288 0.0193022 0.46 
348 6.26995 15.4248 0.763051 0.0244317 0.46 
349 7.43802 6.65614 0.750133 0.0247277 0.46 
350 15.1117 21.0684 0.303328 0.0303309 0.46 
351 13.478 21.0384 0.230039 0.0287831 0.46 
352 11.2739 0.568366 0.183842 -0.000129404 0.46 
353 10.019 21.0984 0.267407 0.0157474 0.46 
354 5.0884 3.40447 0.66534 4.69039e-05 0.46 
355 18.4584 10.4655 0.799712 -0.0240168 0.46 
356 9.50132 12.0441 0.79276 0.0153899 0.46 
357 19.5401 14.9644 0.769834 -0.0191115 0.46 
358 6.70675 9.36195 0.783856 0.026232 0.46 
359 22.9783 3.15516 0.61091 0.0128053 0.46 
360 10.9697 5.05458 0.735299 -0.0132503 0.46 
361 15.3085 2.37911 0.510585 0.0219794 0.46 
362 2.27035 17.8678 0.701923 0.0436183 0.46 
363 13.7725 12.7347 0.785176 -0.0162963 0.46 
364 26.3229 5.82797 0.741715 -0.0178339 0.46 
365 1.08156 14.8397 0.778258 0.0199454 0.46 
366 20.344 12.8686 0.789176 -0.00905245 0.46 
367 5.83788 15.5004 0.763473 0.0198181 0.46 
368 11.296 18.8404 0.631984 0.0406091 0.46 
369 27.3755 4.20474 0.714411 0.0215935 0.46 
370 4.88541 21.8498 0.065763 0.00548438 0.46 
371 21.3981 3.42175 0.63952 0.0195525 0.46 
372 13.9207 4.90392 0.742967 -0.0249319 0.46 
373 11.2729 20.6115 0.352716 -0.0153111 0.46 
374 2.89431 10.5948 0.800869 0.0326304 0.46 
375 0.085807 4.64345 0.724872 -0.00541063 0.46 
376 2.19873 4.56249 0.718619 0.050382 0.46 
377 16.6852 13.3151 0.785011 -0.0215094 0.46 
378 22.846 20.0636 0.524689 -0.0252062 0.46 
379 22.6106 17.5755 0.678102 0.00826362 0.46 
380 21.9917 16.1695 0.749401 -0.0109993 0.46 
381 19.1055 14.9707 0.768426 -0.0132236 0.46 
382 2.66025 4.60246 0.71521 0.0366921 0.46 
383 13.9808 19.8745 0.52383 0.0234452 0.46 
384 4.95609 15.6079 0.760522 0.00211561 0.46 
385 14.1844 3.68652 0.682614 -0.0207894 0.46 
386 20.4163 7.73345 0.754039 -0.0271665 0.46 
387 25.0337 12.7332 0.797731 0.00807749 0.46 
388 19.2461 10.3699 0.797195 -0.023801 0.46 
389 13.8033 9.92841 0.789459 -0.00308877 0.46 
390 3.29643 6.00414 0.74656 0.0287034 0.46 
391 10.5964 16.6252 0.769129 0.0275224 0.46 
392 15.2258 6.50793 0.758154 0.0014906 0.46 
393 19.1571 7.60837 0.772511 -0.0317888 0.46 
394 26.5478 8.12944 0.785174 0.00662913 0.46 
395 23.4215 3.24759 0.601557 -0.0044018 0.46 
396 7.93378 2.74776 0.561011 0.00132716 0.46 
397 19.6583 4.8654 0.713938 -0.0203339 0.46 
398 4.77795 2.20454 0.542605 -0.014638 0.46 
399 18.6015 1.98663 0.462712 -0.0538225 0.46 
400 4.33464 0.551746 0.183849 0.0015276 0.46 
401 11.1146 2.63783 0.554682 0.000774743 0.46 
402 1.71495 8.7388 0.791392 0.0297905 0.46 
403 1.22319 1.36113 0.364782 0.0239439 0.46 
404 17.7215 8.50744 0.789895 -0.0110417 0.46 
405 8.83755 21.4412 0.237323 -0.00802358 0.46 
406 9.3495 18.4119 0.692904 0.0157973 0.46 
407 14.917 12.6825 0.787587 -0.014476 0.46 
408 9.31671 0.147597 0.0817335 -0.0146655 0.46 
409 22.3555 20.665 0.359204 -0.0370689 0.46 
410 9.70851 8.69078 0.785008 0.00321457 0.46 
411 17.111 13.5057 0.785849 -0.0204559 0.46 
412 12.4235 14.0671 0.777053 0.00246646 0.46 
413 15.7595 0.998889 0.295292 0.0276289 0.46 
414 0.373661 13.9645 0.79 0.0112843 0.46 
415 23.7102 2.1017 0.485622 0.028171 0.46 
416 26.517 13.2571 0.799072 -6.17779e-05 0.46 
417 1.85104 19.4362 0.56086 0.0475048 0.46 
418 23.2928 2.10208 0.471902 -0.0186615 0.46 
419 8.95254 20.2302 0.485773 0.0150901 0.46 
420 18.9342 17.688 0.695083 0.00984618 0.46 
421 19.0849 9.48473 0.799825 -0.0304965 0.46 
422 10.6375 18.0458 0.710335 0.0184236 0.46 
423 0.674498 8.8675 0.799675 0.0229399 0.46 
424 8.50369 8.6139 0.782879 0.0176165 0.46 
425 20.5555 19.5636 0.583041 0.0132686 0.46 
426 27.1881 10.1017 0.791743 0.00656645 0.46 
427 3.33646 9.09617 0.793296 0.0361626 0.46 
428 23.0911 6.84221 0.763609 0.00306696 0.46 
429 16.3177 6.04688 0.767433 0.0165611 0.46 
430 3.71324 16.985 0.753401 0.0442365 0.46 
431 10.9415 14.1883 0.789532 0.0225885 0.46 
432 22.6532 14.2531 0.785991 0.00204466 0.46 
433 9.21488 11.2476 0.791602 0.0142116 0.46 
434 25.9298 18.6709 0.664382 0.0143778 0.46 
435 6.86955 8.95138 0.785725 0.0263648 0.46 
436 24.5407 9.58775 0.790792 0.00289331 0.46 
437 16.7431 21.047 0.309302 0.00333977 0.46 
438 21.542 16.1742 0.755 0.00345621 0.46 
439 14.4825 4.67359 0.702231 -0.0190815 0.46 
440 9.03267 5.86724 0.727992 -0.000143506 0.46 
441 11.2698 11.2821 0.787549 -0.000292425 0.46 
442 20.1211 21.843 0.0876537 0.00611433 0.46 
443 6.19812 3.87341 0.66429 0.0216046 0.46 
444 8.1269 5.88264 0.749153 0.0195275 0.46 
445 4.13699 14.5443 0.787289 0.0247771 0.46 
446 9.86425 19.5482 0.559862 -0.00776492 0.46 
447 25.2949 16.2676 0.786286 0.00282126 0.46 
448 6.47759 13.3372 0.78562 0.0239873 0.46 
449 8.66414 13.6508 0.791145 0.0219816 0.46 
450 11.4415 6.30369 0.760269 -0.0173896 0.46 
451 12.1029 8.02328 0.771073 -0.0101847 0.46 
452 0.0254931 13.3025 0.797757 0.00569403 0.46 
453 8.84767 16.8625 0.762804 0.0093369 0.46 
454 5.02834 8.34853 0.783952 0.0239337 0.46 
455 11.4742 9.25393 0.782903 -0.00143932 0.46 
456 3.34977 14.8323 0.77797 0.0342965 0.46 
457 19.7652 11.8665 0.788933 -0.0152117 0.46 
458 25.3592 10.4382 0.79328 0.00473106 0.46 
459 22.6606 12.3237 0.787077 0.000482456 0.46 
460 26.846 10.3448 0.792028 0.00684992 0.46 
461 23.7601 20.1196 0.456426 0.0156729 0.46 
462 26.6822 21.8296 0.0855909 0.0166647 0.46 
463 20.1064 18.8677 0.646353 0.00233821 0.46 
464 13.1443 14.931 0.787931 -0.00532922 0.46 
465 2.93841 3.86354 0.679374 0.0222169 0.46 
466 13.6215 21.4252 0.168853 0.0256362 0.46 
467 6.06454 1.39303 0.351079 -0.00293466 0.46 
468 22.1697 10.8588 0.794338 -0.00285846 0.46 
469 8.78814 10.0664 0.79181 0.0155745 0.46 
470 0.550419 8.45696 0.799225 0.0218815 0.46 
471 17.1504 14.9852 0.776353 -0.0171684 0.46 
472 13.3767 7.02562 0.77381 -0.000192281 0.46 
473 3.9932 20.2505 0.43608 0.0104847 0.46 
474 19.4894 3.99654 0.650765 -0.0261748 0.46 
475 0.185708 14.9757 0.787043 0.0143572 0.46 
476 9.18081 7.36706 0.771382 0.0128735 0.46 
477 23.1348 2.4443 0.511654 -0.00417304 0.46 
478 0.908159 2.86161 0.556951 0.0182198 0.46 
479 12.3691 19.9022 0.511065 0.0101056 0.46 
480 24.9199 3.84397 0.69288 -0.0154823 0.46 
481 18.1893 2.01903 0.462946 -0.0595855 0.46 
482 23.2735 20.9707 0.276499 -0.0146146 0.46 
483 6.65011 0.580905 0.204908 -0.0180994 0.46 
484 9.3407 20.0037 0.517766 0.00428824 0.46 
485 0.564217 10.5803 0.793671 0.00978951 0.46 
486 22.0908 13.0907 0.789552 -0.00550826 0.46 
487 5.91455 16.627 0.771655 0.0266706 0.46 
488 0.1374 11.7826 0.794021 0.00680432 0.46 
489 0.914406 21.4232 0.221302 0.00325619 0.46 
490 3.92301 9.64282 0.795442 0.028975 0.46 
491 16.5053 5.36278 0.730803 0.00105303 0.46 
492 19.0256 9.06505 0.796767 -0.0283425 0.46 
493 6.60055 11.7477 0.797423 0.0288232 0.46 
494 25.5484 8.8863 0.790826 0.00578002 0.46 
495 2.15255 7.00546 0.771039 0.0499523 0.46 
496 15.852 13.7895 0.780158 -0.0164159 0.46 
497 27.5034 3.82353 0.702404 0.0186969 0.46 
498 8.35892 12.161 0.786113 0.0178689 0.46 
499 21.3976 9.11359 0.801545 0.00316357 0.46 
500 27.7761 12.5841 0.793579 0.00682906 0.46 
501 26.4844 6.35257 0.766564 0.00636604 0.46 
502 27.3911 3.38627 0.667713 0.00379199 0.46 
503 5.51618 14.093 0.792877 0.0099552 0.46 
504 23.5802 7.6855 0.786708 0.00433546 0.46 
505 11.0659 10.9014 0.789692 -0.00297321 0.46 
506 2.47163 9.87383 0.793858 0.0339872 0.46 
507 12.2789 0.151707 0.0984605 -0.00603865 0.46 
508 25.0339 6.63504 0.766689 -0.000595357 0.46 
509 27.8218 3.59716 0.68405 0.00600211 0.46 
510 8.88282 0.613793 0.19946 0.00358953 0.46 
511 15.3166 5.68228 0.738302 0.0156076 0.46 
512 2.64185 9.41659 0.795433 0.03425 0.46 
513 3.37407 12.0489 0.794168 0.0345621 0.46 
514 17.4134 15.2888 0.776996 -0.0171164 0.46 
515 6.16738 19.8668 0.52777 0.0285617 0.46 
516 13.6317 5.55238 0.748023 -0.004356 0.46 
517 2.71626 8.46815 0.796868 0.0395552 0.46 
518 23.4986 21.884 0.0688336 -0.0111895 0.46 
519 7.0355 14.2978 0.789655 0.0176095 0.46 
520 21.5693 4.26085 0.678968 0.00368119 0.46 
521 27.2006 19.8206 0.459743 0.0469807 0.46 
522 2.54438 14.1028 0.783851 0.0349635 0.46 
523 4.58044 18.6293 0.6439 0.000657224 0.46 
524 8.40905 21.8358 0.110538 0.00449502 0.46 
525 4.61639 0.958621 0.24153 -0.00211267 0.46 
526 16.0711 21.4414 0.211836 -0.00286614 0.46 
527 1.79284 12.6523 0.793422 0.0230892 0.46 
528 2.34172 2.4056 0.569666 0.0366358 0.46 
529 15.3605 15.4031 0.779562 -0.0138334 0.46 
530 7.65302 1.29276 0.352229 0.00893115 0.46 
531 3.17479 11.297 0.796032 0.0317736 0.46 
532 4.43011 20.2994 0.453893 0.0122954 0.46 
533 16.6159 3.94594 0.669457 0.00301674 0.46 
534 3.18264 10.8766 0.798226 0.033938 0.46 
535 15.0706 8.69865 0.781896 -0.000318605 0.46 
536 17.9021 4.63817 0.717996 -0.0155711 0.46 
537 3.50925 5.6626 0.739839 0.0232186 0.46 
538 1.69037 14.2574 0.787801 0.0223081 0.46 
539 10.2231 10.7147 0.787037 0.00644855 0.46 
540 24.4378 0.548269 0.166569 0.00399129 0.46 
541 6.33439 12.1367 0.793808 0.0258462 0.46 
542 12.3909 18.0823 0.698238 0.0138176 0.46 
543 8.00624 9.10362 0.785685 0.0207168 0.46 
544 11.7133 4.8125 0.741081 -0.032926 0.46 
545 5.31761 6.10081 0.736374 0.0178508 0.46 
546 2.94907 14.8453 0.776238 0.0430114 0.46 
547 7.01149 19.8268 0.522199 0.00890384 0.46 
548 8.19879 0.93835 0.339541 -0.0112402 0.46 
549 21.954 18.1854 0.657937 -0.0206751 0.46 
550 27.5152 20.6042 0.39842 0.0252174 0.46 
551 27.5767 1.7376 0.465842 0.0244437 0.46 
552 6.43585 10.1445 0.795566 0.0286115 0.46 
553 6.49794 12.8789 0.789995 0.0277799 0.46 
554 14.3942 12.1224 0.786698 -0.0135755 0.46 
555 3.05546 8.25019 0.791223 0.0359236 0.46 
556 11.5749 12.0826 0.786636 0.00463497 0.46 
557 19.9819 2.59352 0.525147 -0.0148758 0.46 
558 15.9678 6.21412 0.756222 -0.00301678 0.46 
559 6.58607 14.5223 0.785017 0.0222677 0.46 
560 25.3217 10.0036 0.793294 0.00268646 0.46 
561 26.0646 9.95274 0.791908 0.00571923 0.46 
562 1.51569 9.88477 0.801503 0.0342827 0.46 
563 14.8245 19.8714 0.443215 0.0384231 0.46 
564 4.55147 17.3159 0.731063 0.0157507 0.46 
565 3.33609 12.9434 0.798577 0.0343859 0.46 
566 27.6285 11.1375 0.794048 0.00565273 0.46 
567 7.45018 2.64006 0.57993 0.00296898 0.46 
568 0.172167 8.59634 0.79591 0.0142962 0.46 
569 26.2114 3.79966 0.702561 -0.0142803 0.46 
570 20.8873 19.8326 0.514321 0.0223919 0.46 
571 19.918 5.39722 0.73627 -0.031401 0.46 
572 8.8122 16.1159 0.774919 0.0122425 0.46 
573 8.24954 7.84442 0.770938 0.0179927 0.46 
574 17.1317 0.541831 0.186663 -0.0065278 0.46 
575 22.532 13.1174 0.791195 -0.00444559 0.46 
576 6.06098 13.5034 0.785955 0.0203291 0.46 
577 19.7992 0.981157 0.340112 -0.0229892 0.46 
578 26.5682 12.8137 0.799072 0.000768714 0.46 
579 11.3113 4.88018 0.743866 -0.00457315 0.46 
580 17.4594 6.27712 0.762336 -0.0123634 0.46 
581 4.68083 21.4956 0.133797 0.00534359 0.46 
582 4.86826 11.461 0.796824 0.0239277 0.46 
583 16.4225 14.9716 0.779633 -0.0272366 0.46 
584 24.8508 4.25729 0.711777 -0.00748953 0.46 
585 0.542577 4.75255 0.731447 -0.00358748 0.46 
586 16.5947 17.2424 0.746822 -0.00817608 0.46 
587 25.6155 5.33685 0.743167 -0.00581126 0.46 
588 9.87605 9.06637 0.785491 0.00437989 0.46 
589 4.08108 13.4055 0.779652 0.0327776 0.46 
590 10.4377 20.6827 0.34018 0.0254828 0.46 
591 15.7479 15.0997 0.777453 -0.0220585 0.46 
592 9.30179 17.6273 0.74488 -0.017809 0.46 
593 11.8059 9.50267 0.786032 -0.00442546 0.46 
594 7.54469 15.2934 0.775666 0.0217574 0.46 
595 10.0226 6.79081 0.761069 -0.000388091 0.46 
596 0.168445 19.3888 0.562113 0.0308875 0.46 
597 2.89321 10.1693 0.797672 0.0335131 0.46 
598 5.58776 2.61971 0.577441 -0.00736218 0.46 
599 13.6193 14.9969 0.773328 -0.0186964 0.46 
600 24.4833 21.4309 0.219901 0.0217182 0.46 
601 24.5927 0.16482 0.0961184 0.0016739 0.46 
602 14.4977 20.2571 0.403497 0.0654743 0.46 
603 15.6207 6.43709 0.761454 0.00814991 0.46 
604 14.8823 7.14104 0.786505 0.0177912 0.46 
605 10.2367 19.9499 0.492381 0.00845743 0.46 
606 0.0665151 16.8976 0.748779 0.0463482 0.46 
607 9.07053 10.851 0.792152 0.0130193 0.46 
608 0.966126 19.5065 0.547966 -0.00803037 0.46 
609 4.25026 21.4741 0.119957 -0.0195585 0.46 
610 25.1878 5.37299 0.744212 -0.00382863 0.46 
611 13.8374 17.5459 0.77648 -0.0134227 0.46 
612 8.28402 9.4262 0.786257 0.0196474 0.46 
613 11.0485 16.5762 0.770707 0.0329808 0.46 
614 27.3628 17.5974 0.716619 0.0435654 0.46 
615 23.0833 17.4581 0.689129 0.0294995 0.46 
616 25.1525 9.065 0.792057 0.00593502 0.46 
617 25.7816 21.0164 0.292381 0.0092358 0.46 
618 18.1173 17.7724 0.70772 -0.0062225 0.46 
619 25.4448 17.8343 0.709766 0.0114362 0.46 
620 21.2816 2.31185 0.52407 0.0272142 0.46 
621 9.5985 21.1021 0.283768 0.0145755 0.46 
622 19.9571 11.0213 0.789717 -0.0103644 0.46 
623 23.4001 9.47428 0.792675 -0.0012873 0.46 
624 25.0846 2.22221 0.449781 -0.00835877 0.46 
625 22.3448 4.89936 0.722362 0.0328851 0.46 
626 9.47747 19.5953 0.55504 0.00683287 0.46 
627 18.1345 8.70915 0.793931 -0.0176356 0.46 
628 15.3606 9.99163 0.790412 -0.00667575 0.46 
629 12.2014 13.2219 0.781763 0.00388295 0.46 
630 20.7627 16.4577 0.751524 -0.0159247 0.46 
631 7.30298 3.79148 0.654839 0.028442 0.46 
632 13.7589 7.23243 0.787416 -0.0112628 0.46 
633 6.83664 15.094 0.78086 0.0111917 0.46 
634 26.7805 15.6239 0.781374 0.0134768 0.46 
635 3.83062 1.76432 0.434826 0.00823412 0.46 
636 25.5314 4.62452 0.707749 -0.0264013 0.46 
637 1.97753 21.0424 0.294664 0.00364991 0.46 
638 11.8482 4.41095 0.734167 -0.0378524 0.46 
639 19.7351 17.7476 0.684428 -0.00296878 0.46 
640 1.33751 9.49616 0.799006 0.0368963 0.46 
641 8.57448 18.6304 0.656107 -0.00851016 0.46 
642 12.6695 13.7374 0.776384 -0.0023072 0.46 
643 24.4216 16.214 0.789331 0.0305503 0.46 
644 6.77079 12.1231 0.793378 0.0309391 0.46 
645 13.3897 9.93061 0.789219 -0.0152084 0.46 
646 2.15795 7.92568 0.780548 0.0506791 0.46 
647 5.78374 12.3551 0.785536 0.0271378 0.46 
648 22.9244 16.7307 0.73214 0.0191536 0.46 
649 1.10908 9.96719 0.796642 0.0210257 0.46 
650 4.47232 7.83448 0.775379 0.0300916 0.46 
651 16.0655 7.07914 0.775537 -0.00235416 0.46 
652 5.32431 19.9088 0.531835 0.0469799 0.46 
653 2.40814 4.21353 0.702819 0.0391389 0.46 
654 9.80433 7.91671 0.770218 0.00122776 0.46 
655 20.4116 5.40195 0.739189 -0.0382075 0.46 
656 26.1399 17.4578 0.724455 0.0178859 0.46 
657 27.008 19.0395 0.627977 0.0609028 0.46 