ITEM: TIMESTEP
300000
ITEM: NUMBER OF ATOMS
3684
ITEM: BOX BOUNDS pp ff pp
0.0000000000000000e+00 2.8000000000000000e+01
-5.0000000000000000e+00 2.7000000000000000e+01
-1.0000000000000000e+00 1.0000000000000000e+00
ITEM: ATOMS id x y vx vy diameter 
1 13.114 2.95725 0.514664 0.04835 0.46 
2 1.84392 12.0498 0.539505 0.0214227 0.46 
3 16.8267 14.9296 0.525837 -0.0382391 0.46 
4 14.6388 8.77626 0.549266 -0.0113932 0.46 
5 2.1109 0.624582 0.331955 0.0639544 0.46 
6 2.93492 15.2323 0.524216 0.00539773 0.46 
7 19.5066 1.38571 0.440105 0.0352633 0.46 
8 7.07648 12.8302 0.535524 0.014631 0.46 
9 12.4205 11.7407 0.54197 -0.00537745 0.46 
10 6.58929 9.34847 0.545421 0.00814556 0.46 
11 12.9233 17.0662 0.526731 0.0161805 0.46 
12 16.7081 16.217 0.519702 -0.0522145 0.46 
13 5.47803 17.2154 0.502674 -0.0160238 0.46 
14 25.3224 5.76923 0.524482 0.0269592 0.46 
15 7.63384 16.0875 0.514682 0.01398 0.46 
16 17.2401 14.7399 0.533119 -0.0395506 0.46 
17 23.5575 9.982 0.55435 0.0187069 0.46 
18 0.380541 4.97731 0.526786 0.0196166 0.46 
19 24.1551 3.79912 0.531637 0.00570156 0.46 
20 8.83693 20.1987 0.415868 0.0257634 0.46 
21 13.7536 11.0191 0.542904 -0.00832996 0.46 
22 16.461 21.4049 0.230267 -0.0416763 0.46 
23 19.8445 2.52204 0.473645 0.0410017 0.46 
24 18.2538 11.495 0.553999 -0.00976974 0.46 
25 20.7141 19.7538 0.361928 -0.0683182 0.46 
26 24.8971 19.8689 0.333677 0.0526903 0.46 
27 8.40579 16.4127 0.513212 -0.000195646 0.46 
28 10.598 0.536641 0.365248 -0.0812544 0.46 
29 12.4773 14.4311 0.537915 -0.000815937 0.46 
30 25.8367 21.8179 0.210172 -0.00458537 0.46 
31 21.8882 7.01086 0.547607 0.0133967 0.46 
32 2.76548 13.0391 0.563491 0.0335373 0.46 
33 25.924 18.1278 0.477312 0.0846237 0.46 
34 0.266393 12.0712 0.549911 0.028622 0.46 
35 23.2823 4.48826 0.531215 -0.00499537 0.46 
36 2.96617 17.9628 0.490962 -0.0380298 0.46 
37 3.82658 10.8697 0.543308 0.0163568 0.46 
38 9.42681 11.6895 0.53883 -0.00341321 0.46 
39 4.68828 18.7082 0.455458 -0.0041431 0.46 
40 21.2979 16.3961 0.545565 -0.00222617 0.46 
41 17.8664 6.24203 0.548562 0.0240533 0.46 
42 17.4044 0.545945 0.262327 -0.0122774 0.46 
43 13.7569 4.91853 0.554197 0.0046789 0.46 
44 23.2169 19.1468 0.408587 0.0055361 0.46 
45 20.2153 14.8958 0.553187 -0.0110122 0.46 
46 27.6037 11.1378 0.555031 0.0272278 0.46 
47 2.57957 19.2482 0.492897 -0.0725504 0.46 
48 15.4399 12.5789 0.540008 -0.0125031 0.46 
49 15.9621 9.58436 0.545152 -0.00974929 0.46 
50 3.11516 5.26953 0.513243 0.00498739 0.46 
51 21.6111 21.0903 0.241593 -0.0186482 0.46 
52 21.049 6.78887 0.553077 -0.00349238 0.46 
53 19.1401 14.7026 0.548102 -0.0260134 0.46 
54 9.41505 5.83487 0.521434 -0.0120911 0.46 
55 25.4857 3.92286 0.526275 0.0340744 0.46 
56 13.765 9.49789 0.546797 -0.0099515 0.46 
57 15.5213 9.56735 0.545745 -0.0103435 0.46 
58 9.82493 2.99129 0.521916 -0.019392 0.46 
59 17.4705 7.75254 0.546959 0.00383954 0.46 
60 18.862 17.273 0.515452 -0.0488171 0.46 
61 26.7219 9.73326 0.547141 0.0177368 0.46 
62 14.2542 14.4374 0.528764 -0.00681071 0.46 
63 3.22743 20.2735 0.271273 0.0445948 0.46 
64 12.6938 9.84645 0.545959 -0.00758256 0.46 
65 3.98893 18.4543 0.48406 -0.0316464 0.46 
66 23.1328 20.6544 0.265874 -0.00281529 0.46 
67 27.256 17.9722 0.49224 0.0835485 0.46 
68 25.4016 21.8165 0.215156 -0.00467161 0.46 
69 10.8499 6.63218 0.546593 -0.0264315 0.46 
70 27.5333 2.35998 0.462563 -0.00253421 0.46 
71 0.980173 19.4884 0.478817 0.0798182 0.46 
72 7.02534 19.1616 0.4669 0.014443 0.46 
73 10.2817 15.6668 0.521599 0.00286707 0.46 
74 12.8045 20.235 0.46481 0.0100234 0.46 
75 23.5354 1.8353 0.427214 0.0349853 0.46 
76 1.48875 14.8869 0.527673 0.0110452 0.46 
77 18.5476 19.9414 0.349562 0.00815677 0.46 
78 13.7267 11.778 0.541064 -0.00776803 0.46 
79 18.3582 21.8327 0.204028 0.00737666 0.46 
80 0.185877 6.92986 0.517892 0.040655 0.46 
81 13.3262 9.48215 0.546965 -0.00951319 0.46 
82 10.6792 7.80751 0.54395 -0.0171427 0.46 
83 14.4241 3.8312 0.542093 0.00980043 0.46 
84 22.9292 0.179571 0.20465 -0.0133215 0.46 
85 8.73374 15.5997 0.519407 -0.00361122 0.46 
86 27.9314 15.0016 0.529085 0.0277384 0.46 
87 19.6746 18.5579 0.449628 -0.0530514 0.46 
88 8.26908 2.49077 0.534081 -0.0713194 0.46 
89 9.2608 13.9305 0.529488 -0.00409243 0.46 
90 18.2929 2.1488 0.437297 -0.00272914 0.46 
91 9.82514 20.5915 0.389955 0.00819156 0.46 
92 23.2352 15.3747 0.568197 0.0360919 0.46 
93 8.91605 17.0798 0.504492 -0.00389018 0.46 
94 23.0651 4.85616 0.533495 -0.0063677 0.46 
3696 10.4804 2.7118 0.529782 0.00102696 0.46 
96 9.10578 3.33781 0.524802 -0.0533237 0.46 
97 3.69121 3.80101 0.504108 0.00819304 0.46 
98 12.1791 21.4331 0.152951 0.00659403 0.46 
99 20.1437 3.63127 0.510551 0.0216243 0.46 
100 5.70288 15.624 0.510021 0.0167169 0.46 
101 7.3369 16.7779 0.504454 0.0195048 0.46 
102 26.6925 1.32939 0.427743 -0.0175571 0.46 
103 22.0084 7.42934 0.539102 0.0177477 0.46 
104 18.5877 16.5923 0.525268 -0.0471883 0.46 
105 3.78491 12.6107 0.532319 0.0202301 0.46 
106 5.51531 3.64301 0.513283 -0.0268434 0.46 
107 0.577992 18.6992 0.484995 0.0783728 0.46 
108 3.21998 17.1188 0.502089 -0.0215833 0.46 
109 20.4976 12.0324 0.563214 0.00214297 0.46 
110 4.83553 11.4575 0.541371 0.0166879 0.46 
111 23.2102 8.42354 0.545607 0.0213886 0.46 
112 1.28685 10.3272 0.548462 0.0170009 0.46 
113 19.1542 2.15479 0.454931 0.0219332 0.46 
114 23.2511 14.9486 0.572101 0.0398988 0.46 
115 2.18452 16.6399 0.498816 4.66341e-05 0.46 
116 14.8525 10.6742 0.542751 -0.0102312 0.46 
117 25.3889 9.8105 0.56418 0.0156372 0.46 
118 6.59681 8.90936 0.545445 0.00721982 0.46 
119 13.5502 2.994 0.520401 0.0379513 0.46 
120 26.2789 12.015 0.556306 0.0286898 0.46 
121 0.909871 0.184584 0.239625 -0.00296671 0.46 
122 5.98526 12.1265 0.536127 0.017114 0.46 
123 17.966 20.6832 0.373858 -0.000858719 0.46 
124 11.155 15.5 0.524146 0.00722192 0.46 
125 0.03096 0.199525 0.241069 -0.00403828 0.46 
126 7.97263 15.3784 0.51439 0.0142111 0.46 
127 3.94321 17.3105 0.505767 -0.0221681 0.46 
128 7.1393 5.92131 0.519205 -0.021642 0.46 
129 10.0649 0.216009 0.134625 0.0073504 0.46 
130 15.0908 2.77825 0.517339 0.00748015 0.46 
131 9.2568 16.2548 0.515344 -0.00330451 0.46 
132 16.5176 12.9957 0.538993 -0.02515 0.46 
133 17.6928 11.9506 0.548963 -0.0181236 0.46 
134 22.0934 8.64135 0.550241 0.0181152 0.46 
135 5.77319 16.0749 0.512822 0.0184118 0.46 
136 22.2452 17.945 0.492801 -0.0124668 0.46 
137 6.58019 6.53596 0.519071 -0.0130395 0.46 
138 19.3715 11.3917 0.557981 -0.00188826 0.46 
139 17.2554 1.68292 0.383502 -0.0283646 0.46 
140 20.1414 16.3079 0.541592 -0.0188447 0.46 
141 17.2894 10.3811 0.545281 -0.0100883 0.46 
142 3.39819 9.59657 0.545716 0.013414 0.46 
143 22.4753 18.7492 0.422761 -0.0209706 0.46 
144 3.55203 15.8425 0.520139 -0.00387063 0.46 
145 6.98315 21.819 0.216801 -0.00930638 0.46 
146 14.2006 18.748 0.51577 0.0533147 0.46 
147 27.3355 10.2808 0.556329 0.0261583 0.46 
148 8.42764 14.204 0.532438 0.00687262 0.46 
149 13.9899 2.26284 0.502972 0.0296978 0.46 
150 20.9889 7.53219 0.557756 0.00307011 0.46 
151 1.90392 2.37579 0.500706 0.0521354 0.46 
152 15.0718 8.03888 0.552931 -0.0121637 0.46 
153 14.1991 5.70911 0.568006 -0.00637503 0.46 
154 26.7757 17.23 0.510906 0.0803331 0.46 
155 21.6122 17.0383 0.546876 -0.0253664 0.46 
156 27.94 5.78374 0.527045 0.0337672 0.46 
157 18.183 4.7163 0.503369 0.0355451 0.46 
158 20.2856 0.182835 0.207521 -0.00394748 0.46 
159 5.3559 9.63416 0.542875 0.0104402 0.46 
160 8.07313 8.45827 0.544248 -0.00807128 0.46 
161 11.357 21.4871 0.227247 0.0254859 0.46 
162 18.6363 10.896 0.55133 -0.00111213 0.46 
163 13.5498 5.29 0.564489 0.00329989 0.46 
164 10.1253 10.4246 0.553199 -0.00477246 0.46 
165 6.80714 15.2829 0.519586 0.03188 0.46 
166 15.5138 5.01459 0.564026 -0.0153441 0.46 
167 3.46583 14.6766 0.532856 0.00949537 0.46 
168 25.0648 4.62452 0.522787 0.0267538 0.46 
169 4.81331 3.88327 0.513399 0.0132309 0.46 
170 13.7935 1.09944 0.376524 0.0209667 0.46 
171 14.066 21.0665 0.297147 0.0377315 0.46 
172 0.0778001 21.0443 0.252325 0.0290972 0.46 
173 4.50076 16.7607 0.516674 -0.0130902 0.46 
174 17.4991 9.25229 0.546561 -0.00364805 0.46 
175 6.01116 1.72435 0.520213 -0.0250278 0.46 
176 15.5173 10.3206 0.543473 -0.0107177 0.46 
177 0.431753 16.041 0.511304 0.0218255 0.46 
178 20.5977 8.55883 0.55305 0.0128756 0.46 
179 14.4149 6.10322 0.567648 -0.0093636 0.46 
180 19.7316 11.9133 0.560924 0.00162486 0.46 
181 27.9681 2.30667 0.459107 -0.00622312 0.46 
182 27.4422 9.5112 0.547456 0.0184767 0.46 
183 8.24875 12.2351 0.537342 0.00545458 0.46 
184 8.4456 18.3351 0.479437 0.00250099 0.46 
185 21.177 20.4064 0.326575 -0.055686 0.46 
186 26.7151 12.1197 0.555745 0.0322183 0.46 
187 26.6239 5.05349 0.526608 0.0349696 0.46 
188 0.0170189 10.035 0.548747 0.0192904 0.46 
189 18.021 5.09527 0.567595 0.0480443 0.46 
190 2.62745 14.9245 0.527008 0.00878375 0.46 
191 22.4599 15.7821 0.562172 0.0150014 0.46 
192 21.0237 1.72534 0.405885 0.0310326 0.46 
193 21.5598 17.4423 0.532512 -0.0428943 0.46 
194 14.6322 5.73106 0.566929 -0.0101462 0.46 
195 26.3745 3.93448 0.526415 0.0390157 0.46 
196 18.3622 17.8983 0.512885 -0.0398126 0.46 
197 21.022 13.0356 0.569965 0.00759232 0.46 
198 25.5448 6.17053 0.526842 0.027322 0.46 
199 9.10925 18.5862 0.468609 -0.00169401 0.46 
200 24.2059 17.3713 0.528147 0.0376064 0.46 
201 8.4886 0.575108 0.146484 0.0418616 0.46 
202 5.55255 1.74689 0.517034 -0.00797085 0.46 
203 13.1241 5.26916 0.565298 0.00961538 0.46 
204 18.3164 15.4897 0.534572 -0.0426906 0.46 
205 0.919335 5.34063 0.510316 0.00909848 0.46 
206 24.8282 4.23628 0.524479 0.0215619 0.46 
207 0.864586 10.2303 0.548679 0.017631 0.46 
208 16.4038 9.60039 0.544963 -0.00886163 0.46 
209 20.1189 0.565722 0.213388 -0.00545319 0.46 
210 3.39401 18.9701 0.466581 -0.0617724 0.46 
211 23.4554 11.9321 0.60214 0.0534741 0.46 
212 18.1881 21.4589 0.210793 0.0174669 0.46 
213 9.62986 19.2575 0.468698 0.00282906 0.46 
214 10.1353 21.8131 0.117958 -0.00272154 0.46 
215 24.6573 20.261 0.307885 0.036746 0.46 
216 11.3162 11.4287 0.542811 -0.00173661 0.46 
217 17.4537 19.5735 0.495396 -0.0349707 0.46 
218 11.4136 0.555818 0.326619 -0.00276647 0.46 
219 14.2078 1.89737 0.48735 0.0196453 0.46 
220 16.5581 12.247 0.541187 -0.0215804 0.46 
221 2.2125 15.0458 0.524567 0.0100441 0.46 
222 24.6191 0.176966 0.120719 -0.00917656 0.46 
223 7.24981 7.56311 0.525335 -0.00739031 0.46 
224 17.8904 19.5627 0.489021 -0.00594002 0.46 
225 27.1722 13.2522 0.535441 0.0413837 0.46 
226 15.618 15.5607 0.511534 -0.0255799 0.46 
227 4.57692 2.10654 0.460924 0.004644 0.46 
228 9.00231 20.5883 0.359144 0.0479224 0.46 
229 1.23012 18.3477 0.486425 0.0614089 0.46 
230 4.93597 16.6123 0.518619 -0.0144048 0.46 
231 27.8878 3.46838 0.497345 0.0142481 0.46 
232 3.8058 5.81494 0.508372 -0.00211205 0.46 
233 7.58149 15.1664 0.51624 0.0252464 0.46 
234 3.41733 13.4212 0.549548 0.0238651 0.46 
235 2.10725 13.3519 0.553197 0.0180244 0.46 
236 25.8994 3.20905 0.53445 0.0391028 0.46 
237 1.1439 0.98078 0.38111 0.007763 0.46 
238 2.96356 7.11833 0.540571 0.0273591 0.46 
239 20.0995 2.88979 0.490429 0.0349329 0.46 
240 3.5975 13.0097 0.544054 0.0202249 0.46 
241 13.8386 16.9007 0.519236 0.0220604 0.46 
242 1.91146 14.7402 0.52808 0.0125787 0.46 
243 0.165677 10.4649 0.551317 0.0207031 0.46 
244 7.93003 11.5564 0.538366 0.00633992 0.46 
245 4.48369 6.14384 0.505742 0.0178922 0.46 
246 24.1793 21.035 0.232492 0.0209796 0.46 
247 27.8173 13.83 0.534587 0.0323157 0.46 
248 13.8013 15.1582 0.524103 0.00074665 0.46 
249 1.99177 5.31057 0.511271 0.00758582 0.46 
250 13.1194 6.04286 0.572742 0.00399738 0.46 
251 12.3747 20.2283 0.469855 0.000452333 0.46 
252 11.567 6.40118 0.555056 -0.0404159 0.46 
253 0.241461 2.66931 0.466606 0.00305317 0.46 
254 7.70436 9.57351 0.542105 -0.000108961 0.46 
255 6.26669 2.11736 0.52018 -0.066493 0.46 
256 25.3171 6.53298 0.528948 0.0252342 0.46 
257 25.5144 6.93866 0.531289 0.0263818 0.46 
258 4.52915 10.6308 0.54261 0.0141369 0.46 
259 8.77283 21.8146 0.16364 0.0243059 0.46 
260 2.13397 8.14919 0.545204 0.0134758 0.46 
261 18.0547 3.28043 0.55434 -0.0306348 0.46 
262 20.5605 10.7425 0.558462 0.00922132 0.46 
263 13.5447 9.11062 0.548242 -0.0103094 0.46 
264 5.99878 7.13251 0.52148 -0.00333452 0.46 
265 8.30996 19.5156 0.463298 0.0147055 0.46 
266 12.7535 17.4682 0.525725 0.0168022 0.46 
267 21.8764 0.545991 0.248506 0.0057363 0.46 
268 1.00954 18.711 0.48709 0.0728639 0.46 
269 12.7784 13.2797 0.537611 -0.0041559 0.46 
270 11.6133 10.904 0.546611 -0.0100846 0.46 
271 0.0321581 12.9363 0.537332 0.0353591 0.46 
272 13.3137 7.96456 0.551416 -0.0110842 0.46 
273 8.31176 15.6683 0.520709 -0.00954414 0.46 
274 17.9144 15.6653 0.530384 -0.0479787 0.46 
275 20.1867 1.75846 0.431905 0.0435601 0.46 
276 22.9167 2.16683 0.358653 0.0140861 0.46 
277 2.41878 18.5109 0.493008 -0.0346014 0.46 
278 9.83148 13.9052 0.543238 0.00234898 0.46 
279 13.332 10.2445 0.544862 -0.0085426 0.46 
280 27.1622 8.65525 0.545571 0.0143554 0.46 
281 13.9981 1.49773 0.443046 0.0285877 0.46 
282 1.26433 15.7555 0.513465 0.0146394 0.46 
283 19.6953 21.0394 0.266496 -0.0282321 0.46 
284 3.66041 20.2865 0.278814 0.0506583 0.46 
285 11.1812 17.3935 0.515411 0.00371127 0.46 
286 18.2258 11.0804 0.545493 -0.00713708 0.46 
287 1.98587 11.2816 0.546278 0.018129 0.46 
288 13.7657 6.45724 0.56594 -0.00492294 0.46 
289 12.5446 0.989097 0.342151 0.0746709 0.46 
290 27.0629 5.04232 0.527042 0.0333222 0.46 
291 10.447 5.33935 0.516833 -0.00838212 0.46 
292 21.2179 7.19912 0.550741 -0.00347201 0.46 
293 0.85876 13.0622 0.549698 -0.00231181 0.46 
294 26.7421 8.55291 0.54624 0.0179419 0.46 
295 25.4684 3.20218 0.539235 0.0338023 0.46 
296 15.5854 16.0013 0.513088 -0.0253325 0.46 
297 10.5759 17.8962 0.501304 -0.00411324 0.46 
298 16.2754 0.175429 0.167425 -0.00472416 0.46 
299 5.90293 14.36 0.531461 0.00876844 0.46 
300 10.7216 8.24612 0.545209 -0.0143007 0.46 
301 27.8679 7.27295 0.563887 0.0179372 0.46 
302 19.1467 6.24617 0.5549 0.0257901 0.46 
303 11.7622 7.47488 0.544436 -0.0166202 0.46 
304 22.7638 0.55596 0.233718 -0.0126596 0.46 
305 27.3114 11.4722 0.555449 0.0293806 0.46 
306 23.0274 6.92698 0.54208 0.0295123 0.46 
307 19.1741 14.3061 0.550929 -0.0222927 0.46 
308 0.86516 7.87413 0.550166 0.0151928 0.46 
309 8.84487 14.0561 0.531354 0.000130082 0.46 
310 10.5359 11.9562 0.539204 0.00116396 0.46 
311 0.00387503 6.53578 0.523927 0.0356697 0.46 
312 6.58067 18.6771 0.461695 0.0115391 0.46 
313 1.29417 7.96353 0.544821 0.0123671 0.46 
314 15.7755 3.91141 0.554938 -0.0157211 0.46 
315 11.542 9.47392 0.545858 -0.0116367 0.46 
316 23.0576 4.08888 0.530758 -0.00772137 0.46 
317 14.763 12.9377 0.539214 -0.0101037 0.46 
318 1.27941 14.1526 0.535736 0.0122625 0.46 
319 18.8469 0.988563 0.461731 -0.00327234 0.46 
320 4.24732 17.627 0.503283 -0.0197815 0.46 
321 15.0662 2.04653 0.472592 -0.00239181 0.46 
322 11.3087 12.8332 0.539132 -0.000132931 0.46 
323 4.8525 0.18093 0.210116 0.00201169 0.46 
324 14.9648 21.0482 0.269924 0.0102081 0.46 
325 23.5722 16.034 0.561309 0.0396724 0.46 
326 9.53774 18.4975 0.475045 -0.00510602 0.46 
327 8.15815 13.5401 0.531424 0.00649714 0.46 
328 3.04742 14.8063 0.530023 0.009095 0.46 
329 13.1079 9.09561 0.548405 -0.00987668 0.46 
330 17.1776 21.0759 0.249859 0.0145652 0.46 
331 26.3737 18.0535 0.484705 0.0760765 0.46 
332 25.8591 11.9323 0.556612 0.0268589 0.46 
333 6.71694 20.2795 0.301225 -0.0175498 0.46 
334 18.2708 20.2998 0.39019 0.0389845 0.46 
335 18.6942 5.48046 0.552837 0.0341921 0.46 
336 19.9377 4.00405 0.513951 0.0180128 0.46 
337 5.12831 13.4054 0.528006 0.0182424 0.46 
338 6.96346 8.68777 0.543078 0.000246243 0.46 
339 3.065 2.43566 0.493399 0.0196648 0.46 
340 7.04231 14.1465 0.528543 0.0214277 0.46 
341 22.3176 0.547096 0.240758 -0.000144602 0.46 
342 12.2347 8.31794 0.54853 -0.00935702 0.46 
343 24.5683 0.98912 0.390687 -0.00978747 0.46 
344 24.2894 9.85108 0.557914 0.0157563 0.46 
345 14.8625 19.8529 0.575739 0.0316471 0.46 
346 25.4524 1.34045 0.445391 -0.0193858 0.46 
347 1.94553 12.9526 0.578935 0.0117844 0.46 
348 0.240643 15.2998 0.525574 0.0228054 0.46 
349 0.958422 6.38544 0.549928 0.0256775 0.46 
350 18.714 20.3267 0.404928 0.00204321 0.46 
351 14.5173 21.0584 0.285693 0.0378138 0.46 
352 13.1105 0.610852 0.306196 0.0558541 0.46 
353 11.3041 21.1058 0.374252 0.00746364 0.46 
354 1.73526 3.2669 0.469848 0.00755701 0.46 
355 11.5863 10.3145 0.54719 -0.00604189 0.46 
356 2.54331 11.7973 0.543063 0.0188243 0.46 
357 13.3446 15.146 0.526573 0.00236676 0.46 
358 27.585 8.75495 0.544926 0.0160081 0.46 
359 20.349 3.25857 0.505974 0.0259298 0.46 
360 5.13239 4.70105 0.519323 0.00155624 0.46 
361 13.5546 2.22332 0.500743 0.0625784 0.46 
362 25.4699 17.4742 0.502658 0.0709395 0.46 
363 6.69026 13.0386 0.536079 0.0152614 0.46 
364 19.7856 6.64123 0.557458 0.014392 0.46 
365 22.4901 14.9128 0.569871 0.0179411 0.46 
366 13.4531 12.9106 0.53835 -0.00659509 0.46 
367 27.83 15.4411 0.525097 0.0290873 0.46 
368 8.26362 18.7852 0.454837 0.0268454 0.46 
369 22.8426 4.45573 0.532325 -0.00864565 0.46 
370 7.86929 21.8225 0.192295 -0.00742502 0.46 
371 17.8337 3.65576 0.560658 -0.0384 0.46 
372 7.87203 4.58046 0.520795 -0.0362743 0.46 
373 11.7458 20.6509 0.460913 -0.0105253 0.46 
374 23.9935 10.5701 0.563918 0.00940438 0.46 
375 22.8402 5.22311 0.537982 -0.00536709 0.46 
376 25.2739 4.27292 0.523768 0.0299043 0.46 
377 10.0529 13.0548 0.537231 -0.00153509 0.46 
378 22.7269 19.8946 0.337577 -0.015489 0.46 
379 18.1171 17.1992 0.521989 -0.0566578 0.46 
380 15.9102 16.6383 0.518215 -0.0400826 0.46 
381 12.6761 14.8105 0.53469 0.00110547 0.46 
382 25.5097 4.65553 0.523402 0.0325506 0.46 
383 13.0536 19.8727 0.433739 -0.0276381 0.46 
384 27.0153 15.7133 0.533425 0.0495788 0.46 
385 10.6977 3.86467 0.515392 -0.00484996 0.46 
386 14.1951 8.00054 0.553526 -0.0115582 0.46 
387 18.2911 13.0513 0.553114 -0.0224973 0.46 
388 12.4586 10.2259 0.544151 -0.00739482 0.46 
389 6.55559 9.76406 0.542463 0.00969474 0.46 
390 24.8768 6.48207 0.528693 0.0225673 0.46 
391 5.13458 16.9814 0.500096 -0.0114948 0.46 
392 8.3893 6.31713 0.521853 -0.0164372 0.46 
393 12.4527 7.1772 0.547715 -0.0116382 0.46 
394 19.453 8.28947 0.554921 0.0135623 0.46 
395 20.7994 3.25638 0.517077 0.0182967 0.46 
396 4.63256 1.71082 0.501925 0.0206629 0.46 
397 13.9766 4.55278 0.550787 0.00731664 0.46 
398 2.46318 1.78671 0.428725 0.0421787 0.46 
399 17.3725 2.87767 0.555936 -0.0402921 0.46 
400 3.54919 0.183531 0.252712 -0.00657187 0.46 
401 9.41183 3.6313 0.508421 -0.0254468 0.46 
402 22.473 8.87199 0.550397 0.0191291 0.46 
403 27.912 1.09327 0.38611 -0.0236082 0.46 
404 10.7492 8.67819 0.543849 -0.0121776 0.46 
405 10.953 21.3864 0.301839 -0.0537731 0.46 
406 5.49987 18.4211 0.463187 0.00240273 0.46 
407 8.21596 12.6702 0.535876 0.00624204 0.46 
408 11.8958 0.168452 0.179744 -0.00851077 0.46 
409 22.2742 20.6809 0.273406 -0.0149947 0.46 
410 2.98094 8.33052 0.546038 0.0120507 0.46 
411 10.354 13.3652 0.538701 -0.00266921 0.46 
412 5.54282 14.09 0.537093 0.0137648 0.46 
413 14.7564 0.534363 0.258633 -0.00293759 0.46 
414 22.0712 13.8981 0.560355 0.0128597 0.46 
415 21.7036 2.1001 0.365293 -0.0135437 0.46 
416 19.7704 13.4043 0.558275 -0.00800771 0.46 
417 27.9225 19.105 0.4719 0.0851636 0.46 
418 21.2947 2.10662 0.389445 0.0122283 0.46 
419 7.97534 20.3107 0.33126 -0.00836325 0.46 
420 14.3606 17.5721 0.52539 0.0298688 0.46 
421 11.9243 9.27773 0.537634 -0.0282449 0.46 
422 6.6241 18.2153 0.483578 0.0213603 0.46 
423 21.3394 9.0348 0.552571 0.0150624 0.46 
424 1.42904 8.388 0.546126 0.014109 0.46 
425 19.6523 19.4293 0.320104 0.0425616 0.46 
426 20.1765 10.504 0.556866 0.00821881 0.46 
427 24.5574 9.12655 0.549739 0.0183284 0.46 
428 16.573 6.21351 0.55709 -0.0129186 0.46 
429 9.67087 6.65645 0.529569 -0.00992025 0.46 
430 26.7785 16.5576 0.513502 0.0596356 0.46 
431 3.97946 14.1029 0.54101 0.011143 0.46 
432 16.083 14.4999 0.51953 -0.0216996 0.46 
433 2.26738 10.9422 0.546746 0.0179119 0.46 
434 23.6676 18.3696 0.451592 0.016182 0.46 
435 0.00964951 8.85339 0.545552 0.0177914 0.46 
436 17.7431 9.62773 0.547266 -0.00526919 0.46 
437 17.6094 21.084 0.233376 0.0174247 0.46 
438 15.5507 16.4458 0.512209 -0.0225068 0.46 
439 9.14596 5.00887 0.516307 -0.0177668 0.46 
440 2.71562 5.43096 0.512964 0.00616075 0.46 
441 4.39391 11.3678 0.542551 0.013676 0.46 
442 22.4019 21.82 0.186368 -0.000337472 0.46 
443 1.78821 3.69573 0.502493 0.00807581 0.46 
444 1.92276 5.76201 0.515347 0.00743312 0.46 
445 25.4223 14.3436 0.535133 0.0314945 0.46 
446 8.57305 19.8522 0.460865 0.0209785 0.46 
447 19.3477 16.6738 0.526266 -0.041021 0.46 
448 27.9123 13.3869 0.534856 0.0318908 0.46 
449 1.8484 13.6853 0.52837 -0.00059908 0.46 
450 5.13816 5.86508 0.524632 -0.0080294 0.46 
451 5.37239 7.72895 0.521003 -0.015234 0.46 
452 21.481 13.4344 0.556228 -0.0114868 0.46 
453 3.64418 17.0001 0.507979 -0.0203813 0.46 
454 26.1864 8.03388 0.539614 0.0214858 0.46 
455 4.65079 8.69898 0.548794 0.00775212 0.46 
456 24.4019 15.1525 0.571583 0.0516576 0.46 
457 12.8564 11.7548 0.541706 -0.00585309 0.46 
458 18.2817 10.642 0.552653 -0.00182064 0.46 
459 15.679 12.2106 0.540178 -0.0137506 0.46 
460 19.7854 10.7041 0.556532 0.00530455 0.46 
461 24.4712 19.8739 0.334274 0.0381688 0.46 
462 1.32362 21.8107 0.219396 -0.00249837 0.46 
463 17.0193 18.8703 0.522598 -0.0629356 0.46 
464 6.42281 15.1202 0.526118 0.0317428 0.46 
465 26.7594 3.17159 0.51118 0.0231253 0.46 
466 14.7186 21.4315 0.248458 0.0240854 0.46 
467 4.15439 0.959287 0.388504 0.013515 0.46 
468 15.2913 10.6895 0.542625 -0.0108717 0.46 
469 1.84966 9.66205 0.547442 0.0155916 0.46 
470 21.3532 8.59368 0.550289 0.014842 0.46 
471 10.6063 14.8474 0.528111 0.00295035 0.46 
472 6.71826 6.96613 0.520605 -0.0110917 0.46 
473 2.94956 20.6432 0.298016 -0.0250338 0.46 
474 14.6438 4.21899 0.551099 0.00147087 0.46 
475 21.3529 15.0893 0.560864 -0.000193176 0.46 
476 2.54299 7.10551 0.535241 0.000787179 0.46 
477 21.6615 2.51432 0.531021 -0.000107279 0.46 
478 25.1768 2.42743 0.537197 0.0212111 0.46 
479 12.1011 19.1237 0.500109 0.00955813 0.46 
480 20.618 4.38014 0.532405 0.00620745 0.46 
481 17.1367 2.49276 0.57568 -0.043862 0.46 
482 22.2278 21.4437 0.212783 -0.0100516 0.46 
483 7.60479 0.576413 0.129749 0.0223936 0.46 
484 8.40053 20.2545 0.397144 0.0278167 0.46 
485 21.6936 11.0286 0.564974 0.0143973 0.46 
486 15.2008 12.9502 0.539938 -0.0114415 0.46 
487 0.621315 16.7618 0.492505 0.0336874 0.46 
488 21.2223 12.1072 0.567718 0.00853391 0.46 
489 2.87676 21.4171 0.235868 0.010656 0.46 
490 25.0095 9.68239 0.561076 0.0144319 0.46 
491 10.2848 6.07327 0.529337 -0.0104404 0.46 
492 12.254 9.05743 0.54943 -0.0105489 0.46 
493 27.7276 11.5637 0.553717 0.0285651 0.46 
494 18.6745 9.12982 0.55083 0.00795843 0.46 
495 23.1697 7.33271 0.537753 0.0303699 0.46 
496 9.24877 13.3842 0.539233 0.00846033 0.46 
497 22.8317 3.69087 0.530986 -0.0110429 0.46 
498 1.414 11.9436 0.544266 0.0181042 0.46 
499 14.4215 9.14519 0.547721 -0.0108652 0.46 
500 21.1987 12.6006 0.56761 -0.0103235 0.46 
501 19.554 7.01219 0.558904 0.014314 0.46 
502 23.7153 3.75815 0.531835 0.00176891 0.46 
503 26.9793 14.1264 0.534002 0.0411195 0.46 
504 17.016 6.98462 0.549086 -0.000903635 0.46 
505 4.25593 10.9578 0.542981 0.0150635 0.46 
506 23.1818 9.77398 0.552305 0.0236917 0.46 
507 14.9503 0.169795 0.181015 -0.00522036 0.46 
508 18.5105 6.62412 0.554563 0.0289338 0.46 
509 23.2742 3.72265 0.530923 -0.00425764 0.46 
510 10.2043 0.646456 0.41153 -0.0679595 0.46 
511 8.98107 5.71352 0.519778 -0.0157134 0.46 
512 23.5211 9.55395 0.551154 0.0202356 0.46 
513 24.6869 11.9676 0.55579 0.013461 0.46 
514 11.3143 15.0978 0.524192 0.00815096 0.46 
515 5.69308 19.9258 0.342861 0.00567396 0.46 
516 7.70606 5.31502 0.518966 -0.0270118 0.46 
517 23.6968 8.91083 0.545728 0.0240121 0.46 
518 26.2735 21.818 0.20595 -0.00035231 0.46 
519 0.553093 13.9834 0.535844 0.0221826 0.46 
520 16.6894 3.96354 0.558559 -0.0306328 0.46 
521 26.1832 19.9322 0.378599 0.0273117 0.46 
522 24.0338 14.511 0.581018 0.0501785 0.46 
523 1.46394 18.7202 0.493048 0.0591462 0.46 
524 11.0214 21.8082 0.150431 -0.0126881 0.46 
525 6.21572 1.34162 0.491204 -0.039155 0.46 
526 17.7595 21.4594 0.21131 0.0178624 0.46 
527 23.3989 13.0648 0.569105 0.0559235 0.46 
528 0.0884985 1.88903 0.447037 -0.0101119 0.46 
529 9.15629 15.5088 0.520338 -0.00291353 0.46 
530 7.11133 1.35468 0.538526 -0.104894 0.46 
531 24.4786 11.1313 0.567053 0.00926553 0.46 
532 4.27326 20.6944 0.273706 0.0285078 0.46 
533 12.4415 4.05464 0.523103 0.0358235 0.46 
534 24.3999 10.7096 0.566245 0.00975166 0.46 
535 8.08237 8.9134 0.543146 -0.00544974 0.46 
536 12.7059 5.24602 0.566419 0.0158108 0.46 
537 25.7605 5.80129 0.525706 0.0298129 0.46 
538 23.2557 14.1336 0.576078 0.0541142 0.46 
539 3.25681 10.3566 0.545205 0.0159028 0.46 
540 25.0816 0.549986 0.363139 -0.0187556 0.46 
541 27.4299 11.8956 0.553993 0.0304983 0.46 
542 8.15049 18.0167 0.489433 0.00930311 0.46 
543 1.1446 8.71791 0.547074 0.0163304 0.46 
544 6.00586 4.85557 0.520105 -0.023741 0.46 
545 27.073 5.80736 0.527363 0.0305692 0.46 
546 24.0024 15.3761 0.569387 0.0483515 0.46 
547 6.56792 19.8868 0.361849 -0.0363109 0.46 
548 8.65789 0.976481 0.620737 -0.093682 0.46 
549 18.6969 18.107 0.523641 -0.0504363 0.46 
550 0.318455 20.6579 0.266801 0.0356978 0.46 
551 25.6694 1.73186 0.448758 -0.0267876 0.46 
552 27.5896 9.93818 0.547976 0.020361 0.46 
553 27.6634 12.7134 0.544672 0.0304533 0.46 
554 7.10422 12.3936 0.536048 0.0132469 0.46 
555 24.0387 8.60454 0.544279 0.023229 0.46 
556 4.42823 12.1778 0.5332 0.0114655 0.46 
557 16.6997 3.22571 0.552286 -0.0310529 0.46 
558 9.54528 6.24698 0.525405 -0.0102962 0.46 
559 0.0329547 14.5639 0.532122 0.0272812 0.46 
560 18.2769 10.2242 0.547689 0.000654982 0.46 
561 19.037 10.2498 0.553162 0.00350057 0.46 
562 22.4578 10.1768 0.55516 0.0179932 0.46 
563 13.3438 19.5727 0.508979 0.0283997 0.46 
564 27.679 17.1759 0.492685 0.0743791 0.46 
565 24.9002 12.82 0.5401 0.0166932 0.46 
566 20.5375 11.5989 0.562259 0.00470652 0.46 
567 4.95991 2.25441 0.484945 -0.048806 0.46 
568 20.9574 9.23693 0.553613 0.0136336 0.46 
569 22.4015 4.42371 0.53397 -0.00898745 0.46 
570 20.6727 19.0153 0.42152 -0.0527265 0.46 
571 14.1962 4.94503 0.558226 -0.000901211 0.46 
572 3.02563 16.3913 0.509348 -0.00840002 0.46 
573 1.44527 7.20194 0.549546 -0.00685314 0.46 
574 16.7178 0.174691 0.17895 -0.00750762 0.46 
575 15.637 12.9609 0.540621 -0.0135262 0.46 
576 27.4948 13.5457 0.535524 0.0353681 0.46 
577 19.236 0.988639 0.455991 0.0199882 0.46 
578 19.8809 12.9923 0.561465 -0.004892 0.46 
579 5.57075 4.77985 0.519588 -0.0146479 0.46 
580 11.2855 6.74662 0.551051 -0.0331064 0.46 
581 5.24125 21.8185 0.216521 0.00498956 0.46 
582 26.0585 11.19 0.559972 0.0249617 0.46 
583 9.73822 14.9995 0.526265 -0.00149056 0.46 
584 20.1768 4.38049 0.525014 0.0103079 0.46 
585 23.2808 5.25487 0.537274 -0.0047175 0.46 
586 11.6148 17.3066 0.520183 0.00725862 0.46 
587 19.798 5.88546 0.546925 0.0143363 0.46 
588 3.12207 8.75022 0.546336 0.0126067 0.46 
589 25.4398 13.4455 0.549744 0.02618 0.46 
590 10.6702 20.6095 0.437765 -0.062959 0.46 
591 9.02626 14.7751 0.525256 -0.000643741 0.46 
592 4.557 17.9474 0.499074 -0.0152644 0.46 
593 4.79047 9.1287 0.546251 0.00908686 0.46 
594 1.06989 15.0216 0.527098 0.0144715 0.46 
595 3.73082 6.266 0.514348 -0.000110953 0.46 
596 26.4135 19.5482 0.413307 0.0462716 0.46 
597 23.9468 10.142 0.558074 0.0147395 0.46 
598 3.10754 2.03585 0.507612 0.0301809 0.46 
599 6.71245 14.8202 0.509772 0.0175644 0.46 
600 24.1152 21.8104 0.203137 0.00530244 0.46 
601 27.1278 0.15092 0.140849 0.0274713 0.46 
602 13.6492 20.3317 0.452827 0.0117522 0.46 
603 9.23638 6.54363 0.525754 -0.0100349 0.46 
604 7.80636 6.93554 0.52157 -0.0176873 0.46 
605 9.71284 20.0775 0.40701 0.0136232 0.46 
606 22.4108 16.6562 0.55328 0.00541802 0.46 
607 2.12913 10.5149 0.547453 0.0168974 0.46 
608 27.2731 19.5152 0.435862 0.0637065 0.46 
609 6.36822 21.4376 0.235629 0.00016986 0.46 
610 19.3597 5.87164 0.550412 0.021896 0.46 
611 9.08145 16.669 0.512826 -0.00449141 0.46 
612 1.28547 9.14271 0.547299 0.0161363 0.46 
613 5.40334 16.3362 0.511905 0.022557 0.46 
614 23.1253 17.1506 0.540146 0.0250561 0.46 
615 18.4484 17.4559 0.515767 -0.046039 0.46 
616 18.3161 9.34658 0.54813 0.00600222 0.46 
617 27.2098 21.0526 0.246017 0.02475 0.46 
618 13.4671 17.7107 0.524885 0.0265147 0.46 
619 21.5014 17.8354 0.507996 -0.0559628 0.46 
620 19.3983 2.52591 0.472578 0.0335677 0.46 
621 10.9028 20.9553 0.410492 -0.0586214 0.46 
622 12.8884 10.9974 0.544117 -0.00675075 0.46 
623 16.6213 9.23169 0.545564 -0.007333 0.46 
624 22.5097 2.12677 0.338077 -0.0237355 0.46 
625 17.3815 4.40387 0.572704 -0.0391688 0.46 
626 8.76445 19.4509 0.463539 0.0101473 0.46 
627 11.1475 8.86086 0.540859 -0.0142776 0.46 
628 8.44717 10.0371 0.539779 -0.00109772 0.46 
629 5.17373 12.9741 0.534043 0.020505 0.46 
630 15.1692 16.6692 0.516096 -0.0122161 0.46 
631 3.01168 2.84682 0.4862 0.0176649 0.46 
632 6.83628 7.39583 0.52512 -0.00676182 0.46 
633 0.653854 15.16 0.526485 0.0182119 0.46 
634 20.1836 15.812 0.545857 -0.0147075 0.46 
635 2.88144 1.71115 0.43475 0.0617806 0.46 
636 20.4116 4.76181 0.532909 0.00353833 0.46 
637 0.702573 21.4268 0.23691 0.012522 0.46 
638 6.57751 4.18129 0.522569 -0.038174 0.46 
639 14.6187 18.7082 0.515255 0.04747 0.46 
640 22.0896 9.50631 0.554755 0.0176071 0.46 
641 5.86158 18.2234 0.474348 0.0104218 0.46 
642 5.56757 13.6462 0.538879 0.014469 0.46 
643 18.6398 16.1652 0.530012 -0.0443798 0.46 
644 27.8485 11.989 0.55307 0.0300153 0.46 
645 6.16576 9.53234 0.542894 0.012752 0.46 
646 23.095 7.99584 0.548573 0.0205322 0.46 
647 27.1355 12.2384 0.55406 0.033587 0.46 
648 17.069 16.4514 0.521202 -0.0577645 0.46 
649 22.0735 10.374 0.556741 0.0153115 0.46 
650 26.4538 7.69753 0.538476 0.0242293 0.46 
651 8.93581 6.86159 0.523831 -0.0115549 0.46 
652 4.10438 20.3246 0.289411 0.0307484 0.46 
653 25.9319 3.93743 0.527463 0.0397621 0.46 
654 3.11305 7.5686 0.547715 0.00991791 0.46 
655 14.4157 5.33782 0.564521 -0.00647537 0.46 
656 21.9132 17.6866 0.516031 -0.0259772 0.46 
657 24.7999 18.6629 0.440529 0.049553 0.46 